ITEM: TIMESTEP
5000000
ITEM: NUMBER OF ATOMS
1024
ITEM: BOX BOUNDS xy xz yz pp pp pp
-5.8535302982783762e+01 5.8535302982783762e+01 0.0000000000000000e+00
-5.8535302982783762e+01 5.8535302982783762e+01 0.0000000000000000e+00
-5.8535302982783762e+01 5.8535302982783762e+01 0.0000000000000000e+00
ITEM: ATOMS id x y z
1568 -58.0072 -53.4882 -46.9897
5538 -55.6701 -51.8181 -45.261
18081 -53.8113 -52.8336 -39.7871
5391 -52.5175 -53.935 -45.5697
8036 -53.8152 -56.2623 -40.4591
12593 -56.883 -54.5068 -40.4669
3235 -51.3194 -54.0456 -42.1331
5783 -51.1185 -54.8461 -38.7902
5586 -54.5559 -53.7939 -42.9024
15043 -56.5508 -51.3882 -41.8038
24696 -55.3882 -55.3809 -45.8155
24108 -58.0347 -54.2392 -43.6316
5439 -52.8878 -56.7326 -43.812
2695 -56.1332 -56.8974 -42.8976
2744 -52.6921 -57.2584 -14.1008
21953 -53.2951 -51.4712 -13.1673
5880 -50.2019 -50.8794 -14.5286
10830 -52.2553 -55.5371 -16.9309
4803 -49.3569 -56.7512 -15.1742
19502 -49.606 -53.4603 -16.7814
25039 -52.8883 -52.2876 -16.3498
13280 -54.661 -54.4036 -14.3907
13328 -51.2002 -54.1738 -13.8185
5832 -53.5766 -55.0909 -11.3406
3283 -50.4894 -56.8407 -11.5548
11516 -50.3294 -47.5632 7.72296
16955 -51.6006 -44.561 6.53098
10683 -54.748 -44.0825 8.1789
2549 -53.677 -47.2932 7.41747
5390 -52.1873 -48.8125 10.3479
2254 -51.9339 -45.5208 9.78368
2206 -55.1646 -46.74 10.4959
18425 -55.2657 -49.8583 8.88346
1176 -45.8801 -45.866 46.2576
735 -47.0656 -44.8866 49.3596
22639 -49.2853 -45.8245 51.8091
687 -45.7272 -45.7414 52.3124
8331 -44.2646 -31.8863 -24.5421
2793 -45.8216 -29.4902 -22.5784
12349 -45.7852 -32.8276 -21.5128
9703 -48.1153 -43.1527 46.4825
21316 -48.9191 -37.4037 46.3398
10585 -48.6123 -36.8388 51.9488
2059 -44.5364 -42.9652 47.4755
1470 -49.5261 -40.2139 51.2262
21708 -50.9122 -37.4662 49.4047
2009 -47.1353 -38.0493 49.1351
11418 -44.4712 -42.597 50.8777
20336 -48.6468 -34.9216 48.837
19355 -47.0152 -41.4371 49.0599
1765 -47.4833 -42.8618 52.1915
2647 -49.9262 -43.1519 49.5891
9163 -46.2627 -39.6649 51.9759
11172 -49.8562 -40.3904 47.7141
10437 -44.0966 -39.7321 49.1113
24991 -57.4271 -17.1168 9.13188
10045 -57.3143 -20.5693 9.82114
10781 -57.9649 -19.5191 15.4945
19845 -56.1738 -15.1223 11.9175
9702 -58.1405 -15.9415 14.8922
20384 -57.3712 -18.2369 12.3781
11466 -46.6806 -13.5708 -50.6855
15240 -45.5194 -10.2439 -50.3564
6468 -44.4743 -9.44042 -47.2862
10633 -44.311 -12.6405 -48.4469
15876 -44.1353 -6.10417 -46.5611
20433 -50.4279 -5.06673 -27.7133
7155 -54.8992 -4.21035 -24.2565
17592 -55.2565 -1.73635 -26.8396
19503 -52.0506 -2.63679 -25.8487
20972 -49.0802 -3.9662 -24.5097
1519 -52.2559 -8.01414 -27.3427
11026 -51.6321 -9.17181 -24.2101
2892 -53.9392 -4.9838 -27.4388
245 -49.2132 -7.44788 -25.5618
3675 -54.983 -7.68937 -25.2807
2940 -52.2022 -5.8873 -24.6737
17690 -53.9924 -0.844842 -23.6236
1324 -51.8158 -3.34897 -22.4628
14309 -50.1539 -6.60919 -22.2088
11074 -58.3353 4.58595 2.61961
19747 -54.9676 8.1178 35.1067
19992 -56.3812 10.7787 42.9902
1715 -57.1595 5.54808 36.1667
12153 -55.7657 7.47741 42.0851
23717 -58.111 8.85824 36.8514
22099 -55.2714 7.51225 38.5225
18229 -55.2912 10.7889 37.4108
1667 -52.7873 13.2819 39.217
14896 -54.0277 10.1366 40.48
441 -53.4588 13.0141 42.5555
2548 -57.4864 9.697 40.0157
19797 -54.9299 12.3307 45.4925
19551 -53.3668 9.63282 43.9726
19404 -56.5109 14.2255 43.1937
12201 -56.1107 12.8095 40.088
24794 -58.2777 6.35312 39.5239
11221 -45.5836 18.0827 -45.1898
14162 -46.8945 21.3597 -18.2411
16171 -44.3789 19.0134 -19.3881
9213 -45.5464 24.5362 -19.057
16219 -44.9153 21.9947 -21.1279
11025 -46.7366 23.1192 9.32152
17641 -47.0661 20.7034 6.94947
197 -49.3709 23.5017 6.8496
14357 -49.5352 20.9593 9.39831
3333 -46.1981 19.914 10.2321
3773 -49.7235 24.3145 10.2426
7007 -47.8308 22.1016 12.2119
344 -48.9904 28.3227 31.3002
3284 -51.778 26.9599 29.5653
18277 -49.0542 28.6091 27.8119
21119 -58.2344 15.4366 40.2591
11565 -54.6303 15.7846 40.7055
14407 -56.834 36.4992 -31.0711
11173 -58.0842 34.8099 -28.3655
13819 -51.1217 30.5437 29.7897
5342 -55.7993 53.6346 30.4514
17003 -57.2275 54.1878 27.3105
14651 -57.207 50.9471 28.7175
23276 -48.9229 48.4961 43.2625
2891 -49.6832 46.0285 45.611
9751 -47.0462 45.4558 43.3865
16318 -50.4322 45.5114 42.0522
21364 -46.8195 47.8335 45.909
13721 -30.6635 -47.8372 -38.6943
9115 -30.7565 -46.1084 -41.6922
1813 -33.5206 -46.0191 -39.8224
5831 -32.0637 -44.6789 -37.04
10536 -29.3404 -44.573 -39.0053
15877 -31.3154 -50.1295 -5.78457
7253 -32.4593 -46.8153 -4.92777
12496 -33.9464 -49.6214 -3.79372
20678 -31.1412 -50.8771 -2.40065
22590 -32.2217 -47.7538 -1.59123
7644 -29.5308 -48.2 -3.45178
6664 -31.2406 -57.0816 20.4804
23716 -32.2853 -55.2397 23.3048
17837 -34.2789 -58.1465 22.1207
15779 -30.9309 -58.3175 23.7903
23668 -33.6946 -57.4393 25.4957
10389 -43.8647 -45.7298 49.3379
13917 -32.1167 -43.0228 -40.6615
16562 -40.9191 -31.6287 -24.2178
16514 -37.5309 -30.7663 -23.4168
7645 -42.5264 -34.1554 -22.5925
4214 -42.8887 -30.9186 -21.448
22001 -38.596 -31.8176 8.12376
7301 -43.5043 -34.6067 8.88114
13035 -40.1382 -34.0078 10.0344
22638 -40.8509 -30.6111 5.50672
5929 -42.0969 -31.5325 8.65502
18964 -40.7646 -34.2659 6.58001
23569 -43.6469 -32.7548 5.83197
4753 -39.9795 -30.6894 11.1353
21805 -41.1861 -37.0806 8.98492
6028 -42.9788 -32.3125 11.6595
8722 -40.3115 -33.3633 13.5362
4117 -39.3907 -36.5618 12.1867
10928 -42.6596 -35.7601 11.9676
17885 -36.4066 -33.9224 34.6928
9654 -36.7009 -30.8742 36.6246
18376 -36.0561 -31.5134 40.0621
4018 -37.5417 -33.7487 38.079
1961 -35.1104 -34.9445 40.2575
16905 -35.4941 -36.2627 37.0523
23961 -34.1743 -32.9723 37.5193
2646 -43.672 -15.8151 -49.6177
18033 -42.5107 -14.8069 -46.5112
6175 -41.0644 -25.9225 -23.7934
6420 -42.9152 -28.7882 -24.615
736 -39.5349 -28.4973 -25.4293
8379 -43.2494 -27.2955 -21.6531
14554 -40.171 -29.119 -22.1043
20385 -40.182 -26.136 -20.567
7693 -37.6531 -27.0866 -23.0292
3038 -31.6371 -15.0838 -4.79103
10976 -40.0393 -28.6022 8.12279
1372 -39.0556 -10.5703 -48.5506
6762 -41.497 -4.97591 -48.4365
14897 -40.0691 -7.47819 -50.4374
22051 -42.0923 -10.3908 -50.1425
9850 -41.3679 -8.24321 -47.4039
12397 -41.0168 -13.532 -49.3845
24843 -43.5269 -13.0217 -51.7113
22002 -43.6266 -7.3718 -49.9674
1471 -41.28 -5.53862 -44.9767
14210 -42.7728 -8.74096 -44.3491
19307 -41.7323 -11.5092 -46.6112
5881 -32.0101 -9.54089 -5.26987
5978 -31.1752 -12.1801 -3.16506
5734 -34.0126 -10.6505 -2.65826
23079 -33.8988 -12.3745 -5.82952
784 -30.5933 -12.2934 -6.67664
8869 -30.4675 -9.00661 -1.97606
13378 -34.097 -14.181 -2.6051
16906 -36.4046 -13.7799 31.0625
13475 -39.3424 -9.60794 28.0987
4802 -40.5661 -6.55804 29.669
18424 -39.1832 -14.2148 33.1508
10535 -38.8657 -8.71555 31.4655
20679 -39.3167 -12.1381 30.2979
6959 -36.9335 -7.06543 29.1788
7939 -36.4517 -10.4857 29.4656
19944 -40.413 -11.0089 33.3161
19699 -41.9392 -9.75701 30.3537
6714 -37.0931 -11.2159 33.1255
16857 -35.934 -14.2553 34.5886
17836 -38.6204 -12.3441 35.9634
4950 -29.9537 9.35969 -5.24325
10388 -31.6516 9.1559 53.2244
24795 -30.8475 9.42041 49.7912
7987 -32.6647 11.9078 51.3822
24010 -29.4664 11.5817 52.2786
2843 -40.6503 17.9524 -47.6271
23471 -43.8746 18.6089 -48.2736
12447 -39.9108 16.2604 -41.0546
14700 -42.4623 19.4227 -45.0531
16612 -40.7761 19.6781 -42.2197
22982 -37.4952 15.0582 -43.1015
6517 -37.6533 18.4247 -42.7117
3871 -40.2939 16.8294 -44.2968
9311 -39.2169 20.0924 -45.2221
23423 -43.3204 17.0117 -42.7109
1226 -37.4031 17.1157 -46.0236
3332 -43.1411 16.097 -46.0472
21806 -38.5931 20.9293 -15.9113
21854 -40.2491 22.6778 -18.357
19062 -41.6494 22.1989 -15.1138
4655 -41.4472 19.4658 -17.4344
21512 -42.3902 24.1267 -20.6023
15730 -38.5773 19.8601 -19.2155
24403 -39.1527 24.5019 -15.6435
2157 -42.4657 25.0118 -17.105
18767 -41.6142 20.7568 -20.857
4998 -43.5852 21.9382 -17.8735
17689 -32.9288 28.7635 5.00955
18719 -34.9562 29.7756 7.71276
9948 -35.3268 35.2396 9.64603
21560 -35.8767 30.5831 4.39471
8134 -33.7553 35.4718 6.65207
13867 -36.1096 32.998 6.89709
10291 -31.4858 29.737 7.92453
10682 -35.1538 34.1069 3.74252
11613 -33.002 32.6806 9.03849
7106 -36.2177 31.9146 10.2401
8037 -33.0494 31.9844 5.80908
9114 -33.1575 31.3195 2.44564
10340 -35.0809 35.684 41.5203
13770 -32.7217 36.7499 43.7918
14504 -33.8403 33.4493 43.8831
14848 -35.8524 36.1595 44.8212
21218 -30.5833 34.1821 44.8324
19943 -35.3447 38.8579 43.0171
1127 -34.0381 38.5644 46.3424
14456 -33.2956 35.1734 46.7636
3774 -30.8661 37.3933 46.8317
19650 -31.0579 51.0356 -49.8552
9359 -32.396 47.8726 -48.4513
2696 -29.4118 49.3923 -47.1342
6273 -29.4356 53.7786 -43.0324
343 -32.6822 53.4593 -44.4504
16121 -33.8328 50.3614 -43.5366
6321 -30.3837 50.7143 -44.1807
4656 -31.5297 48.5381 -41.8221
8428 -31.0714 45.1796 -43.0807
6909 -32.1671 47.7994 -45.1216
8380 -32.6841 50.796 -46.7617
9752 -31.6555 51.8924 -41.0814
22687 -30.066 52.9689 -46.6557
23324 -29.7946 45.9989 -46.519
6077 -31.8686 52.9677 -13.9109
19454 -29.9973 47.6233 -18.0106
6469 -34.0776 50.2396 -14.483
8085 -30.9354 49.8269 -12.966
12741 -31.8726 47.4622 -15.2404
10584 -31.2786 50.5154 -16.4511
2205 -33.6453 52.9789 -16.7308
4851 -30.2459 53.7765 -17.1385
20825 -34.9432 51.904 21.0996
24844 -32.3319 53.5641 22.5061
3577 -31.8543 56.7263 21.2267
9947 -30.0041 56.555 18.3333
7596 -35.1951 55.3463 21.3211
9996 -32.5189 54.0777 19.1594
15533 -29.4119 54.4239 20.9283
15974 -35.4619 53.5899 24.1667
20777 -33.4111 56.4216 24.3122
15926 -34.98 51.6732 27.0887
3479 -33.6964 50.6988 24.0119
15827 -32.4725 53.4408 25.8905
392 -30.0576 55.5123 23.9672
23031 -14.8345 -29.7474 -54.0899
50 -14.7152 -31.1366 -57.4053
17935 -20.023 -35.0876 -18.0435
932 -18.24 -37.7386 -17.0797
2353 -21.8354 -39.5634 -21.0953
13279 -19.3632 -40.7415 -18.8005
14602 -22.2911 -36.138 -20.494
24158 -19.186 -37.5423 -20.418
15925 -21.5571 -38.2786 -17.9051
18523 -20.3338 -16.4805 -36.8365
14945 -23.2051 -15.1645 -38.5852
6223 -23.7062 -17.269 -35.898
4460 -24.6805 -15.3716 -33.2266
2990 -21.4337 -16.5187 -33.3044
13720 -15.5621 -29.1155 57.076
20924 -24.1006 -11.8649 -37.7209
3823 -20.636 -12.9119 -38.2939
9898 -22.3412 -14.1353 -35.4729
15828 -25.7388 -14.5636 -36.4497
17151 -21.423 -10.9009 -35.3109
12348 -22.2438 -13.0623 -32.3763
7105 -24.7749 -11.9494 -34.3596
9066 -26.8787 -8.72025 -2.16435
13427 -28.4032 -14.0009 -4.20928
5930 -27.1082 -12.2882 -6.96964
13868 -28.2382 -11.838 -1.4371
18670 -25.7435 -11.9484 -3.6404
7008 -28.7116 -10.3691 -4.55424
11320 -18.0518 -2.34919 32.8878
4606 -15.6806 -0.827733 31.0738
22834 -21.036 -0.714532 33.8038
12152 -15.247 -1.26115 34.355
23913 -18.2385 -0.771719 35.9221
22981 -15.2012 14.008 -47.1578
7057 -18.4452 13.3413 -48.436
1911 -15.8267 11.0218 -48.687
393 -14.9988 8.80631 -46.3414
23962 -18.2124 13.7706 -44.9646
17199 -18.2798 10.5437 -46.2722
14749 -15.5121 11.7145 -44.5636
9801 -26.2542 6.24327 -8.4395
7154 -28.3227 7.25477 -3.18067
588 -26.6221 8.72022 -5.97793
2401 -28.8406 8.84278 -8.50458
8821 -26.1836 5.29043 -5.02248
3381 -29.2601 6.20109 -6.47008
11271 -18.1834 0.914931 32.9178
7792 -16.9788 7.47657 34.3396
20287 -14.8786 2.23544 32.6357
11319 -17.6689 4.14923 33.3395
23912 -14.9259 5.74895 32.0068
10487 -19.675 2.26157 35.7054
22786 -16.2455 1.75386 35.7015
5243 -17.7401 5.02731 36.715
5489 -14.667 4.77678 35.179
6567 -28.3195 8.20146 51.9837
20042 -18.1897 28.5734 -52.857
4704 -18.0989 27.6974 -35.4434
12495 -17.052 24.3649 -36.251
23030 -16.1177 27.2212 -32.4416
6763 -18.7117 25.0001 -33.396
24451 -15.1911 24.0026 -33.3032
11957 -21.1955 26.862 33.4024
14750 -24.0152 23.8111 29.4772
5195 -24.1356 28.6214 34.1567
6615 -24.3698 26.1377 31.8946
10339 -25.4905 22.9643 32.4869
11908 -21.4919 26.1532 30.1653
7840 -24.3866 27.3341 28.7267
17788 -23.8022 24.9565 35.0847
22933 -21.9534 23.7187 32.3432
5194 -22.5932 29.2512 31.2155
19698 -20.2917 33.2953 -55.0788
21658 -19.0025 32.7145 -58.3925
8772 -16.7848 33.2144 -55.8169
5145 -17.9159 32.0494 -52.8229
5537 -15.4974 30.2122 -54.5707
20090 -20.9496 30.4751 -53.0585
20629 -18.7326 30.3792 -55.7991
295 -28.8481 47.6972 -43.8592
10438 -28.4819 50.3131 -41.3803
22540 -28.4643 48.6527 -15.153
16073 -28.3524 50.7796 -17.8408
18914 -28.628 52.0788 -14.5435
10634 -16.0046 52.0492 -1.63855
6125 -19.1561 53.6029 -0.686667
7449 -17.4532 54.3013 -3.67779
10241 -16.2842 55.664 -0.679541
23864 -16.7048 53.2821 1.76474
10193 -14.7965 56.2244 2.39012
21757 -28.6732 57.7132 21.2802
20580 -15.8978 48.2982 48.798
18327 -5.38972 -45.0234 9.70589
17052 -0.342875 -50.4096 25.1144
12888 -1.13169 -52.4546 27.8624
15485 -3.07811 -51.3443 30.2606
1128 -2.62705 -49.2954 27.4908
2402 -1.80859 -48.0635 30.5729
17444 -8.89745 -36.9877 -58.3733
13769 -11.0438 -35.3906 -56.463
2107 -9.61427 -38.6556 -55.5785
5047 -5.70036 -35.7814 -58.2528
10486 -6.34173 -38.9019 -56.7185
19993 -9.55629 -32.5598 -55.0473
15044 -13.0458 -32.8691 -55.0534
22345 -14.0231 -34.5247 -57.9704
10094 -7.68147 -35.665 -55.421
10290 -11.8518 -29.7553 -55.8166
18130 -8.38464 -33.6102 -58.1034
98 -11.4444 -32.2999 -57.9954
1079 -7.25526 -39.899 -37.7807
24157 -2.93109 -34.7402 -38.8127
13231 -4.11595 -40.0906 -36.1582
17150 -4.80763 -37.4987 -38.3967
20041 -3.19943 -36.5487 -35.6221
9212 -7.12203 -38.223 -41.0402
16220 -5.19383 -32.1315 -38.5912
17493 -6.07617 -34.9688 -40.2729
17102 -8.24319 -36.6244 -38.1167
9065 -5.89074 -34.7834 -36.6154
17494 -3.1251 -32.8285 -35.8365
15975 -6.42293 -37.8434 -35.2197
19159 -3.53817 -42.0899 10.7944
833 -6.97429 -42.9759 7.41017
4263 -6.92139 -42.1443 10.7161
24206 -5.1331 -40.2177 8.36176
13426 -3.44768 -43.1969 7.4502
13965 -7.82197 -40.9973 55.0415
21659 -9.376 -39.2627 52.1951
4215 -9.53159 -35.8471 53.3115
2598 -11.1294 -34.8705 56.8842
2499 -4.41144 -36.1857 55.5829
2451 -7.69548 -35.2736 56.0513
7399 -13.7537 -32.0655 56.457
17298 -6.35042 -38.573 57.0667
16954 -9.62363 -38.2271 55.7239
24500 -6.72792 -37.858 53.6077
24452 -8.85153 -40.478 58.3609
8526 -14.3665 -27.5826 -56.9503
980 -2.83499 -20.2678 -13.7038
17983 -5.33358 -22.0679 -12.1194
19405 -5.74077 -18.6789 -12.3362
18718 -8.54692 -20.7026 -11.9078
4705 -7.43078 -18.786 -6.31224
15092 -7.59213 -23.4005 -9.90831
49 -1.81284 -22.9458 -11.586
21609 -1.30125 -21.92 -7.996
7694 -3.94764 -20.3127 -6.87729
8233 -4.24312 -23.0855 -8.9983
22736 -6.68451 -22.2229 -6.63263
19012 -9.41528 -20.8173 -8.46059
20335 -8.45663 -17.8085 -9.87815
13083 -3.39646 -23.6249 -5.83356
3969 -3.10917 -19.9814 -10.2471
12790 -6.18338 -20.1723 -9.30507
20139 -8.04696 -19.0365 20.8562
10732 -5.25882 -20.5057 22.4503
7351 -8.16705 -22.2556 22.1164
8919 -5.84716 -17.1393 23.1878
6076 -11.1407 -20.5417 22.7757
20434 -4.9009 -19.277 25.6549
4999 -7.78854 -20.2536 27.4978
4558 -7.8551 -17.1372 26.4181
8674 -10.9053 -19.1035 26.0968
10780 -6.21154 -22.4379 25.1794
12544 -9.67151 -22.3132 25.4191
13916 -8.12931 -19.5407 24.1939
18571 -12.2847 -29.2582 57.8396
15778 -3.64826 -3.59033 -35.7992
14701 -1.90556 -4.7072 -38.4902
12398 -0.582133 -2.22906 -36.1092
17445 -0.69098 -8.01482 -37.6551
1863 -3.76403 -7.08765 -36.5489
20973 -0.754124 -5.63469 -35.4736
5488 -1.69294 -8.74016 -34.2528
4508 -1.62634 -3.17938 -33.0154
12300 -3.61672 -6.1128 -33.213
12838 -0.405748 -6.3445 -32.0332
8967 -9.85179 -4.91131 10.3994
9408 -11.0421 -8.19265 11.106
19453 -6.90025 -3.91937 11.5376
21413 -7.69233 -7.26656 11.8142
21315 -9.96014 -2.41661 12.842
11368 -8.39618 -5.12761 14.3535
9360 -11.6414 -5.67606 13.353
13966 -9.73594 -8.4524 14.3949
20728 -2.23459 -0.543334 49.5701
16268 -6.28672 -3.75681 52.152
24109 -3.6857 -1.53554 52.7232
10242 -6.31824 -4.77845 49.0453
25040 -3.23733 -3.89217 50.3874
13672 -8.57025 -2.1429 49.8111
12005 -9.5959 -2.61709 52.9848
1421 -5.36288 -1.45853 49.5381
8478 -7.22262 -0.339911 52.4564
13230 -12.8992 11.4831 -46.8917
14798 -0.814047 13.2054 7.75307
21021 -4.66736 1.45628 51.0686
931 -10.3394 0.656099 51.5874
883 -7.6986 0.985762 49.1746
13181 -6.21667 4.04216 49.0601
16660 -7.71748 2.94641 52.1078
5097 -4.42485 1.42371 47.7006
7400 -14.6221 26.7562 -35.5586
9016 -1.2877 16.1256 -20.451
7791 -0.690476 15.7527 -17.0325
9849 -1.09097 19.0435 -18.4041
246 -0.165576 17.4861 3.78243
9556 -1.92249 16.1745 9.33849
3431 -1.3507 19.0921 7.14155
3529 -10.0802 37.4773 -14.8396
19306 -9.92677 40.2628 -16.8558
3137 -9.69581 34.5135 -16.9629
13623 -9.42395 39.3153 -20.0544
21903 -7.79097 37.6351 -17.3975
8330 -9.05655 35.9692 -20.1877
6811 -11.3248 37.1885 -18.0851
8086 -12.6786 40.2257 -18.9835
21855 -12.6645 35.4679 -15.4196
9800 -13.0611 38.9427 -15.8367
4312 -2.66387 33.8686 31.2396
1764 -2.49401 36.4134 33.2484
18326 -1.65105 33.2433 34.4763
18375 -1.25947 36.8593 30.1281
12643 -9.31352 43.2005 49.6715
21266 -12.4636 42.2297 48.1392
9899 -14.0182 54.7428 -2.99897
20630 -13.0019 56.937 -0.654032
14113 -13.5596 53.5759 0.320133
24550 -13.3682 47.6885 46.5303
4264 -13.3878 44.3408 45.5987
20532 -11.1368 45.5138 47.8942
24598 -10.3217 48.752 47.8859
13818 -12.8482 47.5432 50.0537
24305 -9.72256 46.7543 50.8144
3087 -10.6843 50.0838 51.0001
8576 -13.2352 50.5132 48.5376
20581 -12.2217 44.2195 51.0891
5146 -14.4613 45.0536 48.6653
14161 3.08429 -51.3122 -18.1229
5979 9.67742 -49.6449 -18.436
6713 7.91166 -50.242 -15.545
9164 8.62861 -55.3241 -19.763
2255 6.28904 -50.2762 -18.5449
8183 11.1723 -52.7002 -19.1677
12789 5.44041 -53.5761 -19.2029
1569 5.23459 -52.6096 -15.7705
10046 8.20974 -51.9052 -20.7042
24599 7.90325 -53.2905 -13.8616
8232 9.93777 -47.5472 -15.2999
11760 8.27622 -52.9752 -17.3793
7252 6.7037 -47.4075 -13.9408
18866 4.44346 -49.2656 -15.6456
20091 5.6925 -50.8789 -12.947
9017 7.13911 -47.3289 -17.4381
17543 8.94537 -49.6278 -12.4099
1618 0.6515 -48.5772 28.0517
17396 0.45644 -50.9591 30.4039
22296 2.13809 -51.6455 27.3
6616 14.5256 -20.4987 34.4195
5440 1.68848 -4.15288 -33.7097
19552 1.69518 -7.6211 -34.5545
24011 11.7 -0.637648 34.9416
22884 7.75606 -2.92748 39.5371
638 10.0719 -1.21224 41.9694
17934 10.6463 -1.59432 38.4054
22247 10.9761 -4.47105 40.1896
6958 13.298 -1.84194 40.5992
14014 13.619 -0.0239758 37.7558
294 1.03739 13.7949 -19.4448
3186 2.45439 13.4688 6.66722
490 3.59105 13.0227 3.45606
981 4.70488 13.8002 9.34149
22443 0.225992 14.0629 4.22246
4116 5.52817 14.5443 5.77955
20238 13.2749 3.49596 38.4654
9555 13.069 2.51773 35.1437
20776 11.7218 1.27096 40.5841
21365 10.5915 1.69447 37.3641
1373 8.29813 0.519888 39.7336
16269 12.9857 15.8596 -37.6156
11270 12.0495 15.1089 -34.2369
1274 13.4416 18.2988 -34.9027
18474 14.265 16.7133 -32.0017
14064 14.4251 17.9325 -28.6451
3185 1.12361 18.2986 -15.7563
13182 1.63206 15.625 -22.2129
6370 1.73497 17.1608 -18.9859
7743 2.4831 15.0279 -16.4156
540 0.315766 18.8394 -21.6022
539 2.96867 16.3159 4.54523
22492 1.88641 15.4782 1.49142
11956 2.99524 18.8081 2.26571
16024 1.10094 18.2715 9.37193
16856 3.58432 16.6864 7.84131
2010 5.2577 15.7882 2.00282
9458 1.87091 19.2125 5.96134
442 1.34799 14.9433 9.90186
7056 0.360313 16.2053 6.86333
3822 9.61816 43.6485 -35.8861
17886 3.17556 36.1344 33.7541
16808 1.86623 33.1132 34.7736
13524 0.457045 38.2258 32.8334
12937 0.406335 34.7385 32.157
1814 2.44842 36.9483 30.3886
8624 0.141449 36.0663 35.5309
24647 12.9472 50.2635 -51.6782
24353 12.7153 53.699 -52.5083
1078 12.3808 51.2748 -54.9985
12691 14.3287 48.583 -54.4843
3039 14.3675 54.1406 -55.7883
16611 10.191 49.2283 -36.306
20923 13.0579 51.2663 -35.5022
12103 8.07182 46.523 -36.7158
1030 11.3593 46.0935 -37.5757
8135 13.3173 47.7239 -35.2155
15534 12.8935 46.492 -31.7595
11859 11.0495 49.6526 -33.184
19258 7.42023 45.2703 -33.3234
6027 12.5259 49.4486 -30.1628
15681 12.8709 52.563 -31.9882
8820 9.35997 47.5426 -31.0243
24697 13.0769 44.3447 -34.8031
13671 10.4217 46.4039 -34.1185
8282 7.70785 48.6654 -34.0699
15289 14.5465 49.5208 -32.7706
5096 8.18488 51.5687 4.35042
24892 9.00871 48.0219 5.28028
1862 6.49399 49.8541 6.91704
9604 12.189 48.1621 7.03139
15191 11.7957 46.9732 3.76048
9506 6.14971 49.0125 3.42575
16072 10.3917 45.1336 6.52346
8281 13.2808 51.4275 6.93056
3676 9.80567 50.799 7.29456
5048 10.9506 53.3739 5.34544
20483 9.12534 47.448 8.80895
23373 11.4002 50.2432 4.20635
15337 9.24859 49.2388 1.79152
23080 14.4839 49.0594 4.56214
22344 28.3217 -47.7679 32.3928
21169 27.6107 -44.3884 31.4594
9262 20.7798 -58.1398 27.5865
17591 22.8459 -30.4217 8.18561
20482 28.9629 -41.8443 33.5694
18522 22.216 -32.3408 53.6182
12936 24.1002 -39.0543 53.6093
20188 23.3219 -35.4818 53.8397
13573 20.8761 -37.7417 54.8693
4410 21.0894 -40.3302 52.7287
4362 18.5519 -37.9727 52.287
22295 24.9927 -36.6902 51.1823
21707 21.7641 -37.3488 51.4471
23520 22.4736 -34.1638 50.7178
11614 17.8083 -35.9634 55.5177
11662 20.0748 -34.9255 52.92
8575 23.7035 -36.9468 56.7665
10095 21.1507 -34.5831 56.2685
23226 26.4664 -16.1864 -48.4043
19600 25.7604 -19.5253 -49.4576
18082 27.7009 -20.2418 -52.2851
22835 28.9701 -18.6139 -49.6326
4411 26.6507 -16.9733 -51.9276
14358 29.2402 -15.1782 -50.197
4067 23.6368 -24.2956 -24.1396
16367 24.7554 -21.1607 -24.1072
23178 21.1129 -21.4044 -24.5352
2303 22.8384 -18.6824 -26.0214
17542 19.7295 -18.2303 -23.7533
1 21.8476 -15.8543 -24.2938
11761 25.846 -23.4861 -21.4514
9997 25.3974 -20.2444 -20.8806
6224 22.6866 -19.3589 -19.2576
22688 19.4913 -18.6576 -18.0308
15484 20.9635 -16.7393 -20.8103
12250 20.632 -22.1175 -18.4978
1029 22.4514 -20.6776 -16.0112
7204 22.6136 -22.2376 -21.543
12299 19.9901 -20.1505 -21.2124
3921 25.6029 -19.6857 -17.269
22883 22.8699 -18.8695 -22.6244
16415 24.2355 -22.5512 -18.5485
6322 17.4704 -17.7338 -20.8818
4949 25.033 -28.0008 9.90258
21561 22.9268 -26.9215 7.25326
7742 17.1834 -20.5794 31.9977
10143 17.4516 -18.5032 34.9019
15190 20.2984 -21.8804 32.8538
16710 19.7673 -18.4479 32.4954
18032 14.9215 -21.8111 37.4574
686 17.944 -20.13 37.9643
23472 20.5008 -19.8141 35.5989
22393 14.8388 -18.4203 37.0234
7302 17.6714 -21.9754 35.154
21511 27.1091 -12.4539 3.60501
23619 22.6804 -10.3963 6.68504
16758 24.3301 -10.5818 3.7748
23422 28.6802 -10.483 5.74678
24304 24.372 -8.01246 1.36651
22491 22.8507 -7.58034 4.63923
10144 25.6722 -11.9847 6.65412
3234 28.4114 -14.0594 6.29851
10192 25.4676 -11.1408 0.735058
24256 25.8103 -8.63672 6.173
4901 28.1544 -11.9317 8.93147
14799 25.9241 -6.08359 4.00426
21267 27.2483 -9.14509 2.8827
15436 29.03 -7.15092 5.10941
14505 28.9223 -11.3482 0.934016
24059 15.1411 -0.106211 34.4821
25088 14.9147 13.4754 -32.7308
5292 27.9961 1.51047 27.9688
7841 15.0137 1.24874 40.5445
12104 16.1571 2.14439 37.1535
8968 21.3654 25.0403 -53.8003
12055 22.129 22.4813 -51.7558
2352 22.137 19.5314 -53.4208
21610 19.9178 21.999 -54.3828
19061 18.8447 23.6092 -51.3509
21071 23.2013 22.4384 -55.2828
16709 24.8776 24.2198 -53.0382
16317 19.3983 20.1932 -51.4818
12054 25.0305 20.7717 -52.7153
4459 15.8375 18.3966 -37.3273
11123 15.5925 15.4874 -35.4005
12006 17.7361 15.275 -32.5051
2058 16.7871 18.407 -33.8657
18915 17.1026 20.5118 -28.0918
18963 20.0145 19.0115 -29.0969
11711 19.5107 15.6447 -29.6992
15582 17.0591 18.0769 -30.5281
11222 19.8466 17.9719 -32.56
5684 18.4667 21.0627 -31.4291
11712 17.6526 17.099 -27.313
11858 15.9703 14.8422 -29.5199
15239 25.343 23.7649 -6.8348
19649 28.269 23.5852 -8.50463
18621 26.0439 20.906 -8.50454
19796 27.7748 21.7655 -5.56068
491 21.7885 25.9661 11.1694
18620 25.1792 24.9238 11.6788
5244 23.8264 25.1319 17.483
21904 20.6009 26.0096 16.5434
12985 19.7533 24.3983 13.6048
21022 21.9188 22.761 16.1461
18669 23.0031 25.2591 14.1578
9261 25.2261 22.9688 14.9397
20874 25.8326 27.7863 18.2143
18572 17.673 26.7081 14.8369
148 25.9913 26.2971 15.0137
19748 23.1976 28.16 16.1142
20826 27.5374 27.4711 12.3008
14994 24.1071 28.1206 12.7718
18278 20.7367 27.8793 13.6635
24893 20.5199 27.9424 46.5775
9409 19.9811 27.7495 49.9645
9457 23.1951 28.5324 48.5339
16563 16.5031 28.0849 50.6981
9653 17.5608 29.2426 47.7102
21070 26.1673 29.6484 15.2508
19209 20.9258 33.654 46.3816
196 22.5741 30.6372 45.8283
16170 19.189 30.8916 45.0105
1716 18.4559 30.7604 50.8908
9605 17.829 32.7015 47.681
24745 20.6318 30.796 48.3415
13133 15.2573 31.2744 49.3899
14260 19.6828 48.452 -52.3731
22246 20.725 53.7379 -56.9113
10879 17.5255 49.4458 -54.9361
19013 17.7007 53.0112 -55.6229
5733 20.4963 51.0199 -54.9942
6860 18.8706 50.949 -57.959
8723 21.8602 51.2276 -51.9856
2941 19.9712 54.2143 -53.4896
21217 23.1002 53.0358 -54.5437
18817 15.2453 50.9999 -57.1975
1225 18.389 51.5275 -52.3877
16023 16.2913 48.9882 -51.6709
2989 15.4329 51.7416 -53.6701
7448 15.5436 52.1216 -50.3169
8771 15.8744 46.3601 -33.4115
19601 27.7587 55.5847 -11.7823
11907 26.621 55.5679 -8.62742
4019 28.8631 58.0216 -9.72322
12740 19.2132 53.6516 22.9352
22394 21.1223 56.1267 21.4622
17004 17.8596 56.82 22.7359
17984 17.687 58.1864 26.0232
12692 17.4223 52.9254 28.6528
3724 18.1556 55.345 31.1102
13476 17.3596 54.583 25.513
3920 20.413 53.09 26.3072
22148 19.4507 55.7664 28.1006
8673 20.462 56.2922 24.8554
3872 21.1686 56.8771 30.6336
3626 16.1453 56.0802 28.3495
14308 20.5694 53.0891 30.0807
16122 22.652 53.8473 23.6616
10927 18.0752 58.4152 29.6659
13525 31.842 -44.0198 -47.0571
22197 37.949 -48.629 -31.1824
5685 35.0355 -52.5869 -33.913
2842 34.7988 -49.408 -32.337
12642 37.518 -50.2519 -34.2628
11809 36.9899 -52.113 -31.2514
18473 39.1194 -51.1049 -28.9084
834 40.2389 -51.0524 -32.3671
7938 33.5742 -52.2122 -30.9021
10878 38.47 -53.8057 -33.8511
1617 35.6538 -50.1593 -29.0095
7890 39.7405 -54.1658 -30.5444
2108 43.2156 -53.7357 1.16689
785 42.5151 -55.9061 3.82588
17346 30.1861 -45.1141 33.5451
2450 31.9521 -48.121 33.0389
15631 33.231 -45.2889 31.8511
17787 35.2264 -47.5536 33.3895
11124 33.5159 -48.0071 29.9446
7350 35.6754 -43.9527 34.0576
3578 30.2999 -46.2475 30.2695
19160 32.8577 -44.6581 28.6262
23227 32.9241 -45.5584 35.3199
23275 33.2495 -48.8447 36.0214
16807 36.1345 -46.541 36.3211
21756 34.9826 -36.8135 -50.2637
22737 34.5396 -42.1105 -48.1858
22785 31.3066 -41.2569 -49.1775
22932 33.2975 -38.7797 -48.1082
14995 35.7323 -36.7128 -46.8406
18179 34.1064 -40.2657 -51.1271
6812 36.6328 -39.5892 -48.9966
5293 31.9155 -40.7324 -45.8483
1177 33.5118 -40.63 -42.7469
15729 31.2482 -43.3457 -43.5661
12545 34.2814 -43.2406 -44.8707
8527 33.3136 -37.8033 -44.7609
22149 35.5487 -40.088 -45.602
14015 41.1762 -37.5043 -1.25279
3970 41.7023 -38.7429 8.68424
1912 41.4174 -34.8996 0.990932
15583 39.9338 -35.4639 4.05303
1666 41.2568 -41.324 3.54873
15142 41.7835 -35.4934 6.99489
22100 43.2861 -41.0382 6.3944
17297 41.0859 -38.2289 2.05564
8184 38.5348 -36.4583 0.887979
15338 41.1099 -38.3627 5.3823
14063 43.2064 -36.0208 3.72617
19208 30.9906 -42.9386 30.879
23374 34.242 -42.1876 30.9772
15680 32.5251 -42.5088 33.7544
2304 29.8803 -17.5205 -52.9055
18180 35.9188 -0.607515 -38.3521
20140 38.8562 -2.348 -39.5065
11663 38.4448 -1.9221 -36.1274
5635 41.6258 -1.58243 -37.7354
23177 30.7486 -9.5379 3.13529
12202 33.4904 -11.2221 4.28969
6518 30.4654 -12.7623 3.82557
7595 31.7105 -8.85903 6.41944
21463 31.4064 -12.1542 7.06251
11075 43.3936 6.98393 -57.9448
5636 42.336 9.20755 -55.2337
21952 43.6276 10.4415 -58.4127
3136 43.7648 6.41338 -54.2255
21414 42.8786 2.98753 -41.1029
21462 39.6195 3.24591 -40.2652
16661 42.0583 1.96726 -37.9363
12446 37.5967 0.566236 -41.1784
17738 38.9091 0.894279 -38.014
6910 41.0119 0.120883 -40.7604
3382 40.7405 0.41693 -35.0094
3480 31.2447 1.2105 27.3885
17053 35.5883 4.96962 29.793
4068 32.8219 4.28006 27.5077
24746 32.352 5.90393 30.497
20286 29.998 3.97021 29.343
2500 29.6617 4.0227 25.935
24255 32.3282 2.61544 24.327
7547 33.9574 7.48703 27.9045
7889 34.1525 4.25775 32.8306
23667 32.1964 6.17679 24.796
16464 32.9033 2.27247 30.3423
23766 30.8915 3.33708 32.6376
9507 30.4776 6.79907 27.7335
19111 29.8501 0.719722 30.6677
7546 36.8321 36.6227 -32.6985
14112 33.3166 36.887 -33.5199
17395 34.5258 36.161 -30.2531
7498 37.3009 34.2461 -30.0819
6174 36.6569 31.1066 -31.4407
11810 34.3101 32.7962 -29.6265
19356 34.9123 33.7725 -32.7803
13622 38.224 33.4897 -33.3465
7497 30.1412 57.569 -13.1415
2156 30.8073 54.0703 -13.0364
22442 31.5982 55.8459 -10.3598
4900 29.904 55.8508 -7.37951
6665 29.4065 53.3942 -9.81308
2794 57.3444 -52.4777 -41.2128
4166 58.1981 -51.0472 -44.556
13034 45.6872 -55.1195 -1.10972
8625 48.4896 -55.8067 0.845052
14603 48.0666 -54.5169 4.13497
637 45.6549 -56.3899 5.82334
20531 45.4791 -56.0537 2.33484
10829 44.9028 -53.2566 4.365
20875 46.5046 -52.915 1.43567
12986 47.8911 -58.2412 3.43419
23325 45.1521 -39.5746 9.0411
8918 44.1234 -36.2047 9.41099
15386 44.3029 -37.7655 6.34202
23521 44.0438 -37.2036 0.724608
12251 44.0265 -39.4998 3.35272
3627 45.246 -25.1341 -27.7808
12594 50.4479 -25.8314 -25.3782
19894 48.4148 -26.2885 -28.3977
882 45.002 -24.558 -24.3146
19846 47.1084 -27.2061 -25.4147
3430 47.9335 -23.7313 -26.139
14406 44.785 -21.8673 -26.5134
24549 50.3136 -22.5419 -23.9091
2745 46.8343 -21.5145 -23.683
18228 47.9901 -24.9352 -22.9524
6566 57.4381 -19.685 7.47173
1960 56.5401 -22.0768 9.69931
8870 56.5165 -16.2823 8.21885
23863 56.6197 -18.7368 10.5769
20727 57.677 -15.6131 11.5419
4754 56.4164 -17.953 13.7946
13084 57.7699 -21.0434 12.7852
18768 53.9227 -21.6406 44.4494
24207 55.2163 -21.1129 41.2553
20237 52.0686 -20.3053 41.6978
13132 53.0178 -23.657 41.7936
15632 49.8205 -24.8415 46.4716
16759 50.6556 -22.6394 43.9718
5587 48.3602 -17.9506 45.3597
15288 51.3923 -19.4774 45.038
4165 56.1437 -24.1352 43.1982
23814 54.2671 -18.3312 43.3192
99 50.8951 -17.022 42.844
3528 49.881 -23.0088 40.7845
13329 53.215 -24.9908 45.0421
147 50.6346 -25.9924 43.0451
5341 48.7305 -20.057 42.7621
10731 48.6885 -21.1552 46.4348
13377 51.9736 -22.3927 47.1396
22050 44.234 -0.123075 -39.6051
24501 45.6018 8.53592 -56.1014
16513 47.6283 10.8365 -54.4408
16465 47.0832 11.5129 -57.7751
16416 47.2364 7.19721 -53.542
15093 44.7542 9.51959 -52.8972
20189 48.842 8.69345 -56.7767
3088 44.4794 11.907 -55.4542
14553 49.2212 11.8153 -24.4073
13574 52.0643 13.2025 -25.7194
15141 49.0499 14.0857 -27.1071
8429 52.5184 11.4244 -22.9026
6272 49.8782 12.7957 -21.1467
5782 55.7288 3.08731 3.84156
14847 54.9637 8.63531 3.34259
12839 52.153 7.32704 1.82388
4607 55.3229 4.2404 7.21275
1275 58.416 3.24486 5.98472
22541 57.5943 9.81905 5.44554
17640 55.5023 5.74571 1.67373
1323 52.0099 8.87437 4.91478