ITEM: TIMESTEP
0
ITEM: NUMBER OF ATOMS
1024
ITEM: BOX BOUNDS xy xz yz pp pp pp
-5.8960469206177883e+01 5.8960469206177883e+01 0.0000000000000000e+00
-5.8960469206177883e+01 5.8960469206177883e+01 0.0000000000000000e+00
-5.8960469206177883e+01 5.8960469206177883e+01 0.0000000000000000e+00
ITEM: ATOMS id x y z
14210 -53.9995 -53.5851 -7.51775
12691 -51.6112 -55.9591 -5.12025
9654 -48.5979 -55.6586 -7.17924
10731 -55.3735 -56.5137 -8.89296
5978 -52.458 -53.3722 -10.955
19846 -50.3425 -52.7253 -8.3772
17298 -49.4156 -56.0765 -11.1927
17346 -53.2514 -56.7512 -11.7667
13329 -47.9775 -44.9258 11.5376
23864 -54.8627 -44.6877 10.6083
3137 -51.8466 -45.2705 7.46584
1667 -50.335 -45.0882 14.7441
9997 -44.8619 -55.0624 20.9928
7693 -52.8547 -47.193 13.3676
8135 -56.9831 -44.4108 42.3465
23717 -49.7486 -37.5232 -50.2049
4557 -46.2661 -37.0367 -48.1561
15778 -46.6465 -43.0037 -48.851
16367 -51.419 -40.8365 -50.2885
3626 -44.5182 -40.1335 -48.5229
19062 -47.5232 -41.3612 -51.5608
99 -50.5801 -38.1119 -46.8601
7694 -46.3318 -40.8163 -45.5742
2352 -49.6903 -42.0953 -46.231
147 -57.513 -30.0989 -25.1061
21021 -52.4767 -41.3647 10.7188
9702 -49.7139 -42.8442 9.03386
19894 -48.4882 -39.0464 13.8072
14113 -52.9363 -42.7736 13.8828
6272 -48.4588 -42.2922 15.7335
9310 -57.5594 -38.0027 45.654
15093 -54.5195 -39.6071 45.3786
6419 -58.5522 -43.9659 45.2009
23275 -55.6908 -37.8614 42.3541
3479 -54.782 -43.0604 44.7207
1324 -54.3697 -17.4937 -50.399
15141 -54.5412 -15.4081 -53.056
22148 -58.7148 -15.7138 -49.4527
15681 -44.881 -28.8088 -31.5058
5048 -44.4553 -27.2887 -28.0453
14211 -57.2644 -19.8743 -15.7023
12838 -53.9786 -18.8661 -14.6747
22639 -56.2307 -22.0987 -13.1649
17297 -54.0538 -15.9786 -12.397
14505 -58.1284 -16.195 -14.5358
1862 -57.29 -20.845 -9.94854
5096 -55.9659 -17.6647 -9.35052
7154 -53.2683 -19.8305 -11.5375
22687 -58.3337 -15.8147 -11.118
490 -51.7339 -21.2411 4.09766
11564 -53.2577 -16.1452 6.25006
8673 -50.9635 -17.9392 4.28786
20973 -50.6579 -17.7475 9.652
2107 -53.3037 -16.1884 2.26195
11516 -54.6853 -21.8003 6.23716
22393 -48.9548 -20.1687 7.10738
18327 -51.3031 -22.698 7.5901
22834 -53.5169 -20.7867 9.9847
22981 -55.7345 -18.4803 7.37723
22100 -46.9369 -15.0464 53.0587
18669 -47.2256 -16.4113 48.4865
8771 -44.2752 -15.0864 47.2277
4803 -53.7726 -14.5563 -47.4517
22394 -58.4919 -12.0796 -48.8248
8576 -55.7766 -10.6193 -51.9801
1765 -57.6545 -13.6103 -53.2129
19845 -45.353 -12.1169 53.0982
14014 -46.2212 -9.89554 50.5039
12937 -47.9815 -11.2754 47.7758
4851 -48.6971 -11.8401 52.4737
23080 -49.7099 -14.4813 50.0924
21658 -58.6977 9.63791 -42.7107
14553 -49.2892 5.66032 -3.97681
2157 -52.4979 3.52414 -4.53357
20335 -52.7738 6.85854 -3.96528
2205 -53.0688 2.74389 -8.73555
24501 -50.0875 8.88839 -6.16174
14259 -50.4743 4.33353 -10.2986
14308 -53.0758 11.5192 -9.26801
49 -55.9552 10.7199 -7.00901
22786 -56.0887 7.90629 -4.8689
736 -53.5819 6.0769 -9.89168
7889 -56.489 7.74244 -8.61793
17395 -57.9943 5.11234 -6.51076
2499 -50.7679 8.01185 -9.44304
2059 -55.2479 1.91839 -6.06204
3871 -45.1934 2.12281 45.0743
11320 -55.6185 6.59756 43.2647
2450 -51.5805 4.67098 49.0809
16709 -55.1327 28.3088 -55.168
21805 -52.3874 24.6852 -56.7382
1127 -56.3112 28.3954 -58.6626
2451 -47.1423 15.8756 -26.7925
2940 -52.7204 28.7207 3.69233
17151 -52.141 25.6476 7.28201
7546 -47.9471 26.3408 1.98115
1 -53.7941 23.9542 3.42056
4362 -49.6846 22.7618 1.85711
18964 -49.1976 23.0615 6.08927
21806 -55.1439 27.5011 33.3564
22246 -58.3361 27.5229 34.7589
19012 -57.0669 29.3491 31.2176
21854 -54.2767 26.375 57.2702
9605 -50.6422 28.1534 57.4989
9653 -51.2189 31.2657 -58.537
3823 -51.697 30.1192 -55.259
4165 -52.7589 33.552 -55.6505
9947 -57.5877 30.6948 -55.6618
4410 -46.2875 37.1852 -15.4505
9164 -48.37 42.1254 -12.4658
10633 -48.567 42.7933 -16.1547
24549 -49.1941 39.1757 -15.0037
24011 -47.5672 39.8093 -18.0092
5047 -45.4396 38.3181 -12.1824
6273 -44.7877 41.8306 -17.8772
441 -44.6539 42.1216 -11.8516
6321 -45.8296 44.077 -14.5686
20287 -56.9302 43.1242 10.6268
10241 -53.3117 42.0292 10.1357
17199 -55.6476 42.3079 14.1608
8134 -51.7591 42.7224 13.3896
20091 -55.9656 33.3603 31.9634
16611 -53.9291 30.5647 32.0045
18228 -57.2426 34.1122 35.3534
833 -54.0425 32.3781 36.1363
2108 -57.9379 30.6743 37.6964
14064 -54.0263 33.713 58.2073
5831 -56.9791 31.7313 58.2115
14357 -50.2603 50.5337 -35.7024
638 -47.6426 52.9993 -36.1258
9115 -52.6616 56.1715 -38.7083
16073 -50.0635 52.0091 -41.6345
21511 -47.3178 54.0384 -39.4495
9163 -53.0034 53.6528 -41.1817
19307 -48.481 50.5419 -39.0312
14651 -52.1496 50.295 -39.1728
23765 -49.9427 55.6591 -40.9126
22492 -54.1001 52.9165 -37.1599
23863 -49.5721 56.1229 -36.9465
22638 -51.369 53.9632 -35.0677
2892 -53.1704 58.7403 -7.85242
15436 -49.5835 58.891 -8.9751
16122 -53.0782 47.9201 10.5729
1666 -49.4989 58.1069 8.97306
16170 -56.8084 46.5364 10.6145
20139 -54.2989 45.2941 8.54674
24451 -51.11 44.7556 10.1842
1323 -54.0276 45.1244 15.8904
21659 -51.2855 46.7079 13.3962
11613 -54.6676 47.9421 14.0431
1275 -57.67 45.1675 13.9163
540 -50.3772 52.2897 46.2055
5244 -50.6851 49.6607 48.581
14602 -50.0156 51.0866 52.8492
8331 -53.0693 51.983 50.0773
16121 -47.4069 50.2497 50.1578
3431 -51.7813 55.0975 51.2288
9457 -47.8907 55.9165 50.2444
2695 -46.9821 53.5882 47.7424
24157 -50.8166 55.4376 47.7042
15730 -31.5535 -46.0467 -39.66
3578 -29.7214 -45.2652 -34.2623
7645 -29.6287 -45.8777 16.8241
14554 -29.914 -43.8886 -42.9817
16219 -30.7369 -43.6638 -37.1814
12005 -41.4944 -31.3797 -35.829
22590 -42.2355 -32.6652 -27.6323
11319 -38.4733 -30.882 -33.1213
8233 -41.493 -33.4338 -33.229
15729 -39.3917 -29.8007 -27.446
22149 -43.7359 -32.2879 -30.8291
8183 -30.6851 -41.6005 20.6361
9212 -32.0819 -40.1016 13.6786
5391 -31.5827 -40.243 17.1534
6224 -32.1706 -43.9267 18.3973
5586 -30.8672 -33.9243 43.6649
20237 -31.5005 -15.3984 -51.6534
18621 -43.4415 -28.162 -35.4507
6566 -42.2008 -26.5022 -31.0881
12790 -39.4036 -28.3806 -30.6145
4656 -43.9731 -15.939 51.2435
6420 -30.5398 -11.7299 -56.1411
13966 -32.7839 -11.4596 -52.8171
11271 -32.3276 -14.3025 -54.9136
19503 -29.8335 -10.73 -50.5002
14994 -32.4564 -10.9429 -25.2427
19747 -32.8386 -9.50504 -29.6582
10830 -30.7487 -8.02025 -27.3838
392 -33.3342 -13.2457 -28.7315
2597 -31.223 -12.0995 -31.388
12692 -31.1753 -14.3161 -26.0874
18425 -34.3349 -2.99197 10.5576
1715 -31.6378 -0.894935 11.6786
7448 -35.9005 -4.8808 15.2549
6762 -33.3149 -1.39586 17.4933
21267 -37.0424 -2.42384 13.3079
12985 -32.1917 -4.91522 15.7155
12789 -30.5147 -1.83736 15.2523
343 -35.9045 -0.0573931 15.4978
15534 -36.6762 -6.7284 30.6312
10584 -29.6856 -1.42244 38.1281
12103 -43.0839 -12.0244 49.4723
19797 -36.6905 10.1978 -49.1949
24158 -41.5659 12.558 -50.449
20189 -37.15 11.9809 -52.3317
19650 -34.8774 13.687 -49.1146
14652 -40.5214 11.6709 -47.2578
3969 -37.6576 14.0571 -45.8837
11173 -40.9045 13.9436 -44.5551
4558 -43.6001 13.7705 -46.8805
23913 -34.9041 1.63851 8.78334
6714 -32.384 2.60511 11.7399
1177 -38.0849 2.01261 12.4584
21315 -34.1267 2.17199 17.4589
4999 -34.9847 3.14223 14.1414
6861 -30.6236 0.815286 17.3387
11368 -43.4552 16.333 -49.2503
22491 -37.3591 16.5265 -48.0631
21757 -39.4791 16.4427 -50.9965
14946 -39.3767 16.8411 -45.2242
18081 -30.5977 23.6679 -40.8203
10928 -30.9728 22.2009 -1.70284
23815 -30.4449 25.6481 -1.52631
1225 -30.7427 24.1599 7.07524
16954 -32.9597 23.8077 0.430543
5390 -35.1223 21.5687 3.41372
7498 -31.2558 26.3153 1.79296
11614 -32.3084 20.7808 5.99895
15877 -32.0125 26.9449 5.14039
11712 -35.215 25.3252 3.02658
16955 -31.3477 20.9568 1.71431
1568 -37.6638 26.3628 32.5387
1863 -42.4487 24.4471 30.3782
21756 -35.8978 25.2 26.0687
883 -34.4774 28.1993 29.6641
20776 -37.7275 29.3064 30.4865
8086 -33.1172 24.9397 29.0131
1911 -41.9279 27.3688 27.209
6468 -39.1012 23.4898 31.2093
22443 -35.0015 24.012 31.8923
20728 -39.5042 23.9668 27.7804
24403 -38.1581 28.1636 27.2626
14112 -40.9205 25.5966 33.2799
15387 -42.3365 28.6494 31.0809
4361 -42.6217 40.6866 -28.4848
2254 -42.8037 39.8753 -15.8995
6665 -36.3568 42.1215 55.3726
16268 -34.4605 43.6311 52.5112
589 -36.5362 58.5037 17.73
5783 -39.97 44.8632 52.8969
16514 -39.0129 48.1109 54.3781
4215 -33.224 46.6053 54.3006
1520 -36.0643 48.5866 52.6497
2647 -35.5517 47.8736 56.5857
20874 -38.4676 44.3676 57.0972
18179 -28.3602 -47.4706 -40.8851
4949 -25.8122 -46.2714 -38.6046
4313 -29.2839 -49.8109 -38.4211
13377 -23.098 -44.6089 -13.3879
15484 -26.4856 -44.4636 -15.0701
9409 -27.0623 -49.412 13.1835
17542 -25.3261 -45.0018 12.8301
12250 -27.4695 -47.8893 18.929
13230 -28.8685 -45.985 13.2229
9114 -26.2696 -44.5999 18.3934
7742 -22.6035 -44.8313 55.0654
24745 -22.4118 -46.221 51.9904
4704 -19.1892 -44.538 50.2369
21169 -28.1455 -40.6106 -39.2244
16807 -27.4094 -43.6027 -36.4177
22736 -19.8273 -42.4234 -16.121
9506 -23.4505 -42.5462 -16.2494
12643 -28.2395 -42.1185 -13.3411
1421 -23.5813 -39.182 -15.6079
687 -26.5342 -38.5321 -13.3245
393 -25.7026 -43.6222 -8.31768
3185 -23.2242 -42.506 -10.5008
8281 -23.3197 -39.2041 -11.1745
3087 -24.9281 -41.3179 14.0064
13279 -27.5771 -37.826 21.8963
8625 -28.7391 -40.2772 15.2684
10536 -25.8777 -41.3899 17.4503
9066 -27.3612 -42.0945 20.9366
5537 -28.8501 -42.1242 12.3948
3039 -23.9657 -44.2103 15.8952
16464 -27.1293 -35.4731 38.0852
16416 -23.9073 -32.9103 41.8583
4852 -27.6454 -38.3607 40.3369
4459 -27.9771 -36.914 43.3947
5439 -23.3205 -35.0006 38.6535
588 -24.9148 -30.9325 44.785
4411 -22.7245 -37.3748 42.0415
24648 -26.889 -32.4169 39.8958
13181 -24.6603 -35.3951 44.4349
22247 -29.3143 -31.0086 45.0928
5538 -28.5972 -34.9861 46.2225
4900 -29.1122 -34.8848 40.6757
9360 -17.8927 -42.2678 52.5917
12740 -19.8794 -42.6084 55.4345
8282 -29.0355 -14.8007 -55.9627
4508 -26.8211 -15.3474 -52.6732
22295 -15.3146 -24.8769 -46.6624
21560 -18.3535 -16.1075 -17.4085
19013 -22.4638 -15.2916 -17.2704
7106 -24.0214 -17.8464 -15.5912
21119 -25.4961 -16.4674 -11.9403
22688 -21.1345 -19.0769 -16.8948
19061 -17.4844 -17.1622 -13.2362
1814 -24.8494 -17.0332 -8.72
1422 -21.9534 -17.2373 -11.4391
344 -28.5187 -14.0587 -49.8202
11957 -26.2339 -11.887 -51.2918
24844 -26.6366 -11.4645 -55.2951
2401 -28.7299 -9.48719 -53.5326
6518 -28.8906 -11.2548 -24.9469
10094 -27.8667 -13.8502 -27.3971
17150 -27.6394 -9.72345 -28.1632
4754 -21.9029 -11.6246 -12.4254
17249 -25.2071 -12.3762 -12.4687
9948 -20.1595 -13.2016 -15.2461
8820 -19.883 -14.461 -12.0356
12741 -17.1827 -8.3648 23.1781
981 -15.005 -8.1774 20.1777
24892 -15.1748 -9.74121 26.0526
12055 -16.0435 -6.31902 25.7135
13133 -24.2576 -1.49952 40.8949
15975 -23.8244 -5.02284 39.6551
6126 -29.3024 -5.49998 37.8779
22932 -26.8277 -6.48322 40.5169
12545 -27.573 -2.8979 35.862
24255 -27.1294 -3.78377 42.7393
6174 -24.2859 -2.51506 36.9074
4509 -15.7262 -8.83718 52.6408
8330 -15.4906 -5.63905 51.3363
6909 -28.6897 12.9166 34.3474
12349 -28.3086 21.121 -39.1757
23129 -24.883 21.6113 -39.5914
19355 -25.1963 27.0392 -41.7158
3675 -23.7257 23.8789 -42.0652
3921 -27.9217 21.6768 -42.5261
20826 -27.6437 24.9185 -43.8373
11074 -24.2509 25.082 -38.2317
294 -28.3216 27.5834 -40.0551
12397 -29.1435 24.7239 -37.4565
1471 -26.2458 24.0807 -0.934397
8967 -27.6834 26.7737 1.34794
20042 -28.8326 28.5149 4.25635
23521 -25.8302 26.2925 5.00321
637 -25.9919 23.7734 2.58094
10045 -28.4731 26.6329 7.2692
21708 -29.2473 21.8047 4.21011
14848 -27.9604 20.3947 1.32821
19208 -14.8923 17.5866 18.9091
3627 -23.5138 15.6634 41.2046
16513 -24.4231 37.753 -56.6643
9899 -27.6182 36.4343 -54.6934
14504 -22.813 32.6189 -57.4478
4263 -25.6031 34.766 -58.6284
6713 -24.1616 31.1858 -54.3888
22982 -21.5903 35.2523 -55.6916
4117 -25.2465 33.985 -51.8106
6910 -28.1767 33.0599 -55.0002
11075 -19.0858 36.6234 -24.2616
21414 -15.8489 35.7351 -23.6086
20090 -17.5505 40.6798 -20.2899
16171 -20.8676 42.2465 -20.1514
17885 -19.5395 35.5201 -18.2352
19306 -17.5135 38.3661 -17.6841
21707 -19.9691 40.8499 -16.8823
6615 -23.3788 39.8385 -21.5815
246 -23.5307 36.7488 -18.6402
23716 -15.6094 35.6426 -18.8154
13770 -18.0737 33.6482 -20.9415
13868 -21.4844 36.1764 -21.5394
22835 -19.7682 40.0745 -22.7841
19895 -14.9351 38.6899 -21.5631
4067 -19.0316 41.482 32.1524
15435 -19.2355 37.9611 30.9892
931 -15.0509 40.0551 32.6195
12006 -17.3893 42.1759 35.199
20385 -15.685 36.1504 33.7448
18767 -16.677 37.6766 37.2058
6958 -21.2665 38.8905 35.7315
2843 -19.3156 35.8843 35.5198
6567 -17.5846 51.5852 -37.4123
18866 -16.6679 56.9198 -36.7888
9458 -19.7118 54.0247 -36.1109
6077 -15.2607 50.5366 -34.7417
4166 -19.8178 52.9357 -30.8911
18474 -18.2698 55.3896 -33.1412
19992 -15.6632 53.0044 -32.0236
19944 -17.1803 53.8006 -6.12534
20678 -15.4656 57.7061 -0.840236
17837 -18.8663 56.6476 -3.82267
20630 -16.1934 58.8759 -4.07382
23619 -15.6942 54.1126 0.0466209
18130 -21.378 54.2314 19.9115
13720 -21.1561 52.5848 29.023
12054 -20.2298 49.0441 28.1946
12202 -23.445 50.1797 30.7899
4019 -24.6695 53.1692 29.1675
2891 -23.3758 47.1163 26.8751
5489 -26.6453 50.967 27.3787
18082 -24.3471 53.7879 25.6514
11760 -24.2017 49.093 24.1638
17494 -21.0702 50.9161 24.6228
4901 -7.58629 -45.1629 -36.9939
17248 -4.36493 -44.7624 -32.1159
15142 -7.29089 -45.4524 -30.5498
21463 -10.1102 -45.8457 -33.307
7743 -6.47035 -47.3999 -33.9421
4214 -13.0969 -57.9007 -6.50762
735 -11.117 -57.2591 -3.53154
2303 -9.7978 -57.525 27.1759
19454 -6.6557 -55.8342 30.5433
11369 -6.8326 -41.2627 -36.5731
5684 -4.31335 -44.1423 -36.1149
5979 -9.44623 -42.5151 -31.1967
11418 -6.10865 -42.2006 -30.6555
7791 -4.45929 -41.4759 -33.6591
21217 -7.75257 -40.2667 -33.3762
17444 -9.84178 -42.5065 -35.1864
22296 -3.25048 -32.1369 -17.6805
491 -10.427 -31.3722 1.24821
1078 -9.66194 -33.0195 7.5335
12544 -7.79667 -30.8443 3.21359
9800 -4.82948 -42.5222 15.6486
19159 -3.70361 -33.2561 34.7516
13182 -9.14359 -32.8199 37.9437
7057 -5.88446 -30.6491 42.781
13231 -7.59166 -29.7792 39.3173
12495 -2.61277 -30.3616 36.6352
17052 -3.28313 -33.4395 38.1587
12251 -4.75664 -36.1144 40.4419
22884 -6.24687 -34.9909 37.2076
18131 -9.1757 -32.1415 41.6213
6076 -3.37955 -32.9878 41.9959
14700 -13.7998 -20.7447 -49.9497
21512 -10.4007 -20.1846 -49.2312
12299 -10.529 -23.5679 -50.739
9801 -13.919 -24.0172 -50.653
22737 -8.91053 -23.7833 -47.5376
1373 -12.0816 -25.8277 -45.5923
6027 -10.946 -22.6014 -44.4287
2549 -13.8105 -20.2535 -45.578
10339 -10.8071 -22.8784 5.25986
4802 -8.50018 -27.2584 0.565424
17641 -7.12289 -23.7392 5.38773
17689 -12.2696 -25.1619 8.17173
10780 -11.9028 -27.1286 0.709596
17886 -12.4929 -25.8768 4.14291
4705 -6.03332 -23.9908 2.18247
15632 -7.08062 -26.9706 4.05517
8869 -9.71503 -27.6458 9.42177
1470 -12.1246 -28.461 6.37722
15680 -8.50247 -29.4763 6.33047
10291 -13.5621 -29.4022 3.30074
11663 -5.1449 -28.1551 37.4336
21071 -8.30515 -0.9817 -3.8746
22345 -7.84452 -2.70078 -6.9625
23961 -10.1614 -1.55552 -9.73208
7938 -3.51728 -2.38933 -7.3018
10682 -6.46231 -0.413852 -9.36014
1029 -14.387 -4.43443 18.8823
5929 -11.8855 -9.45515 21.2616
11662 -13.3953 -2.68183 21.6401
10732 -10.4504 -7.28551 23.8646
12593 -12.8828 -4.7019 24.3068
9311 -12.1278 -10.466 24.6286
19160 -12.3129 -4.42237 49.628
20581 -10.1497 -7.07785 54.7385
8722 -11.1544 -10.2057 50.6467
3725 -13.1235 -8.07143 48.8735
9850 -11.4424 -3.93305 52.8941
19551 -9.16379 -7.35225 51.0868
20629 -13.7612 -6.27747 55.0207
9849 -12.5715 -9.51571 54.2573
22883 -10.3506 7.52775 -38.6997
11026 -0.93788 10.0613 -44.3164
5880 -12.4769 9.28785 -35.8938
17102 -7.30077 7.04763 -32.3682
19698 -9.31723 9.87996 -32.2413
15583 -10.382 5.06289 -32.8633
1764 -7.7021 2.31993 -4.47288
16808 -3.40353 1.59847 -8.18413
22589 -4.31567 2.7689 -4.74815
10878 -9.0343 2.49473 -10.0013
10976 -9.80009 3.89388 -6.67671
23177 -6.68585 5.66133 -5.72626
8919 -7.37703 6.03571 -9.08486
5832 -5.12787 3.1347 -10.7915
5341 -13.217 12.0884 17.9638
16023 -13.179 12.6412 21.4215
5881 -10.2352 12.9021 19.6078
24207 -0.469493 13.1503 43.6083
10438 -3.91992 24.8118 -2.49173
14896 -3.35599 28.3298 -1.56167
7056 -6.33362 27.5115 -3.30664
7008 -7.27081 24.0247 -2.0189
1519 -9.02566 26.8643 -1.22413
10486 -2.71602 24.9064 0.945343
2206 -8.52732 24.3769 1.3275
5293 -5.00843 25.1571 3.31638
23569 -7.566 27.8381 2.553
834 -4.27648 28.4686 2.39813
10927 -5.43818 22.8688 0.592525
7595 -11.321 17.4413 16.8829
10879 -12.0145 18.1892 20.9418
18768 -9.12982 15.9473 19.362
7840 -14.4744 15.6414 22.2286
17003 -14.2311 15.0886 16.1729
7497 -0.00976271 17.0309 42.4706
13475 -0.355398 15.5399 46.3789
6812 -7.60952 42.3166 -52.6739
20875 -3.52525 42.9546 -53.935
6860 -6.4838 42.6063 -55.9997
18229 -5.00051 44.0706 -51.0678
98 -6.71436 29.5796 -0.625226
16759 -8.61209 48.5262 -49.7275
14407 -2.65903 49.6832 -55.8136
24500 -3.00845 46.9071 -53.4653
16465 -7.86633 46.2167 -56.7832
23030 -5.60778 51.8785 -55.0129
7105 -3.74395 50.1573 -52.5481
20434 -2.64795 47.672 -50.1933
18522 -7.27594 50.5953 -52.189
6125 -8.34665 45.2252 -51.204
16562 -8.6784 49.8836 -56.1009
13916 -8.95694 47.6081 -53.6625
18719 -4.05179 46.0123 -56.7574
16220 -5.50724 49.0606 -58.1924
1030 -12.6032 55.1893 -1.32577
23667 -12.4294 54.4997 -4.93648
3480 -14.5941 56.7467 -6.58565
2255 -7.00336 56.22 28.1571
19502 -9.24982 58.9122 33.3788
6664 13.9619 -48.4501 -56.4906
5782 6.47172 -54.7554 5.46487
7890 11.2891 -53.6814 2.30012
10389 9.48454 -56.2696 7.13794
3528 11.9986 -57.108 1.90395
19111 9.72529 -53.1456 5.33699
20188 12.4684 -54.6821 8.27278
22344 8.41681 -54.7971 0.30675
15876 10.997 -58.7597 4.81359
1128 8.22213 -48.0208 33.1929
20336 10.36 -50.8352 33.342
17004 4.91081 -48.9354 33.9043
20384 10.071 -48.7349 36.0481
11270 10.5787 -52.1476 36.7979
24697 5.96431 -51.6559 40.8918
20531 11.3183 -49.4926 39.255
16024 9.15808 -46.5941 39.1246
6616 5.5553 -47.6319 39.6933
17543 8.12924 -48.5913 41.8272
15191 8.44736 -44.2606 35.6258
2010 4.76611 -49.9434 37.2461
2058 7.6021 -53.2934 38.1201
5734 3.65223 -46.4003 36.1179
13672 5.05535 -53.4822 35.4097
17200 14.5485 -42.2257 -45.3841
3235 12.1197 -20.5026 -37.0853
18572 11.3755 -18.7967 -33.6616
10046 14.1858 -19.6175 -31.2025
18424 13.6244 -23.5734 -31.0098
17934 10.636 -21.8754 -31.1613
8184 12.7845 -25.0785 -34.6944
21609 9.67247 -21.5438 -34.9893
23276 13.8857 -15.8753 -34.7129
8821 10.9804 -23.6463 -4.99271
13328 11.2753 -21.172 -2.15352
13280 14.7352 -23.5768 -4.05016
17396 12.7515 -18.7438 -8.21401
1716 9.54782 -20.0693 -5.77265
22541 13.303 -16.9848 -4.6481
20679 9.97568 -11.4336 45.4731
9359 12.4651 -8.08237 45.183
24696 5.69944 -8.25658 43.3452
9898 7.81443 -5.14895 43.2558
15974 11.9699 -8.37129 39.8206
12594 9.92516 -11.3182 39.7703
4460 7.77881 -11.0237 42.9596
15044 11.3325 -6.3007 42.5102
19453 4.32736 11.8896 -49.9138
2353 4.22828 5.49368 -49.6751
19405 7.42314 10.0954 -48.8397
20923 2.93587 8.67046 -51.1502
24598 1.30898 10.296 -48.5211
14456 1.35151 6.53635 -47.7556
1274 2.95496 11.0797 -42.5292
13426 4.32908 6.13169 -45.8717
15631 4.01876 11.9779 -46.3787
1226 5.89774 9.44382 -45.0315
5097 0.0880804 6.8939 -43.9295
8772 14.3542 2.26156 -28.9344
1617 9.88895 13.7621 -2.81493
14750 12.0109 11.4771 -4.52201
15338 13.5023 8.54936 -1.92489
23325 12.6087 14.3505 -0.553789
18865 10.042 13.1222 1.44379
15386 14.3462 11.442 0.973068
3773 2.85437 11.6781 42.6611
15926 5.34439 12.8915 44.8637
2794 6.75782 13.0143 39.1254
1912 8.20645 13.8836 43.0662
22051 2.35243 11.908 46.1706
20433 1.56318 14.6191 40.861
9556 6.38576 28.4458 -32.8079
19943 4.71568 28.8784 -29.7736
4607 3.29116 17.671 42.3029
7547 4.80859 15.9308 38.4943
7792 2.01007 18.2286 45.8486
7449 5.85074 16.4035 44.7775
17592 7.95294 15.9937 40.2211
5195 2.83172 15.4373 47.5894
8870 14.5714 15.321 52.1028
686 3.75003 34.3148 -32.999
11859 7.63004 33.2168 -28.9021
17935 5.32564 37.5251 -31.3741
11025 9.40147 36.1526 -29.9541
13819 3.26219 30.6323 -33.7197
13818 6.65232 31.9404 -34.8505
17983 9.74482 34.1159 -34.387
1569 9.25691 31.7591 -31.5545
13867 4.5016 34.6552 -29.532
20482 5.87195 36.1651 -35.0768
18571 12.3271 40.8052 27.2573
15828 10.8705 37.1231 25.7095
8968 8.72763 40.26 31.8087
23668 8.36461 40.8663 26.1086
18816 10.4857 35.3788 28.6578
19356 14.4253 35.2818 30.945
21022 11.1313 37.2886 31.5756
11956 6.24504 37.7907 29.6783
17984 12.1161 40.7583 31.1784
50 14.7208 38.6204 25.7083
22785 6.544 50.067 -15.0796
980 6.77852 46.7158 -13.1714
15190 2.66744 49.0567 -12.6551
19258 9.22905 49.3704 -13.0453
21462 8.08069 52.5568 -12.201
18718 3.98102 52.6679 -12.2277
13917 4.32831 47.103 -10.3566
882 7.04071 48.5499 -8.4462
7302 6.92146 51.9741 -9.05311
15925 7.51641 58.576 2.93373
11908 9.78064 46.7215 46.196
9408 12.9465 51.5823 43.8314
14455 7.48332 49.2088 46.4289
9016 10.3558 51.5352 46.6288
19257 12.4574 47.2478 43.0524
13427 13.0114 50.424 49.1699
22002 18.6806 -45.4771 -46.9711
5145 15.4775 -44.4805 -24.9981
24108 24.8536 -57.556 -35.1066
13965 15.5398 -57.0114 5.20795
18326 20.1701 -44.9648 19.2771
8429 23.4543 -47.5487 19.8347
10095 19.7792 -45.5531 22.7996
22001 22.7682 -46.6651 24.2971
13476 17.5609 -42.072 -48.7823
13378 16.1694 -40.4164 -43.1014
6028 19.4174 -39.5869 -43.9806
17591 21.0829 -43.0246 -47.0817
24060 16.9329 -43.7439 -42.2789
23423 20.6787 -44.0812 -43.5335
19601 28.7489 -35.433 -24.4396
23814 25.2822 -35.1928 -22.8084
24941 27.3717 -37.4636 -18.074
9996 27.1583 -31.5984 -18.8854
7203 24.8487 -32.0528 -21.7476
12496 26.3362 -39.6475 -21.4377
539 25.688 -34.8827 -19.4616
18278 17.837 -39.3577 21.2502
21953 22.6399 -42.3235 18.847
14358 23.5851 -41.2141 22.6031
14015 17.2753 -43.6512 21.1251
19748 20.7157 -40.1004 24.2622
20727 18.4795 -43.0074 24.3748
21316 25.2673 -43.9312 24.3927
1176 23.1274 -41.5802 27.2128
11711 18.3586 -31.4555 37.8266
5243 15.3254 -19.2363 -38.1626
11417 18.0812 -20.6126 -35.5607
3283 15.1945 -22.1808 -36.643
21903 16.2192 -21.9447 -32.9018
2744 17.0024 -16.8541 -33.0191
12447 15.0221 -19.3233 -2.55394
8232 15.9983 -19.3254 -5.84
9065 27.1001 -14.9258 -4.45865
9752 27.2882 -21.0352 16.4158
2745 29.0349 -24.1503 16.169
20825 23.3422 -17.778 56.313
18376 18.2412 -18.6441 55.187
9507 19.8096 -16.1133 57.5434
9555 16.8576 -15.9745 53.5929
16072 24.1799 -16.5731 52.5378
20777 19.4798 -18.3797 51.5065
4753 25.9339 -10.9589 -3.75711
14995 26.9608 -13.4489 -7.61361
16856 27.3875 -9.84686 -7.37526
12153 29.2874 -9.28728 -2.94566
2598 23.3418 -2.69656 20.1125
18817 20.1603 -1.7553 18.5181
14406 17.3342 -0.657034 22.2602
17787 19.536 -1.15506 24.8554
6223 29.1012 -2.55073 36.3551
8674 18.9507 -13.5347 54.9122
6175 22.3975 -13.6824 55.6015
4950 21.6934 -13.9358 51.4894
11123 15.7838 5.50671 -30.2983
14701 19.3664 9.22415 -28.7123
14798 18.2301 3.9662 -24.959
4264 20.6464 4.95565 -27.286
2696 19.2531 5.65823 -30.3889
24746 20.3492 0.908717 -29.2182
11810 14.8407 4.6673 -26.5664
24256 18.5083 0.519359 -26.2644
3920 19.6933 1.9208 19.4549
13573 22.7017 2.26753 21.3492
1960 16.6706 2.70916 21.0282
17739 19.9903 2.2958 26.5642
18523 16.3116 1.89544 24.3696
12642 22.3654 0.781845 24.4409
12201 22.1727 4.39842 24.2752
15092 17.6585 13.4312 52.0517
10340 26.9385 21.843 -40.6352
13623 25.8482 25.1564 -38.8428
23374 29.2082 18.7569 -42.5977
2989 29.1007 27.7595 -42.6816
24550 27.7709 24.4474 -43.8171
8918 29.3433 21.5207 -45.6895
6517 23.4373 29.1991 -7.48215
10634 21.4602 24.6415 -4.05019
23373 20.8945 26.5326 -8.37287
7644 25.2234 25.3477 -3.69208
13034 27.6991 27.7043 -2.33407
11907 26.7113 24.5063 -6.79127
10977 25.3674 26.983 -9.30908
24942 23.6456 28.3248 -4.27083
8037 28.6767 27.9781 26.7937
21365 15.8327 19.9049 52.1844
19404 19.9511 19.8913 52.2991
2842 17.0512 18.2977 48.7392
22099 19.4652 16.6104 55.0905
17836 19.8823 16.194 49.2982
6322 19.5067 43.9273 -47.9822
3430 19.9728 43.0391 -42.4747
3382 20.7761 38.9978 -43.0309
19209 23.8174 40.3057 -46.3112
24452 17.2371 42.7679 -44.5335
11565 26.3763 30.8646 -7.55997
15779 22.7764 42.8433 -4.73099
9261 25.105 42.6314 -1.12872
15289 16.4139 36.8131 28.4165
4655 15.9044 29.7964 57.8265
21855 23.0824 55.8672 -35.7385
24843 28.5127 56.0622 -38.227
7350 25.6604 54.0402 -37.3985
24795 26.8387 51.0723 -35.4805
10242 27.8054 56.1305 -32.5645
22540 28.3221 52.7666 -32.1718
18914 24.1773 56.8562 -32.5204
15827 26.5435 45.6085 -3.37636
6370 23.6777 48.4766 -3.60471
3381 21.0606 47.5888 -1.05441
16318 24.5506 47.2383 0.275763
18963 35.0716 -54.3064 -56.4965
23471 33.3437 -51.1847 -56.4294
20483 30.7584 -53.1546 -57.2513
15240 42.3048 -44.9362 -42.9923
19649 37.4935 -47.5624 -42.7671
3136 37.8453 -45.7022 -38.1697
23031 38.2519 -51.8714 -4.71899
24991 35.0861 -54.0855 -5.71971
10290 32.5346 -51.9842 -9.49485
12936 35.6139 -51.2777 -7.66903
23912 41.2916 -52.388 -6.29013
10683 37.2762 -51.9942 -10.6675
932 38.1365 -55.489 -10.8043
25039 36.5475 -56.9298 -7.2709
24893 40.6515 -52.9029 -9.55877
13084 31.9885 -49.8783 57.7822
20580 37.0983 -52.9671 57.7429
21070 31.5182 -52.883 55.594
18915 34.9082 -55.0562 55.7747
15239 35.3726 -51.3956 55.1255
5636 31.0747 -55.3983 58.0452
8477 38.8643 -53.9324 47.6258
23472 34.2619 -56.5444 58.7906
3088 35.2564 -49.9794 58.9023
20286 34.757 -31.9084 -56.5809
5488 32.3429 -29.8735 -54.5707
5440 31.9952 -29.5783 -58.031
15288 39.0988 -41.2122 -41.0599
21266 39.1763 -43.7031 -44.3916
11466 36.4448 -43.5397 -40.7112
22933 40.9035 -44.2147 -37.9281
11124 32.3441 -34.7075 -17.2969
11172 31.1474 -34.8466 -21.8735
3774 31.016 -37.4279 -19.3465
5930 30.5632 -31.3577 -20.5204
23079 36.4131 -39.2389 9.27514
18670 41.4019 -42.3113 10.502
7253 38.9116 -36.4928 10.4584
16660 42.1846 -38.2044 10.9752
16612 41.9786 -40.4985 13.5806
3284 39.15 -43.0068 13.0746
12888 37.9317 -37.0951 16.3407
9213 36.0846 -41.3073 12.9064
16905 41.7006 -38.4989 16.3538
10143 36.7509 -37.7832 13.2089
1618 38.3319 -40.8045 18.1669
19796 42.1106 -34.1823 39.6145
9751 43.1499 -31.1564 41.2344
3038 39.928 -30.9242 38.854
12152 42.0652 -33.8897 35.6541
2793 41.1717 -29.6116 35.4745
16415 36.0617 -29.7449 58.5381
20238 37.9526 -27.0062 -57.118
13083 36.5373 -28.646 -53.0834
23324 35.8813 -25.2029 -54.7689
21561 33.468 -26.301 -58.6485
17445 39.7583 -15.366 -37.9974
9017 38.5138 -17.9599 -32.5611
14749 41.1948 -16.1746 -34.9991
5194 32.766 -23.5072 17.3067
5733 29.5644 -18.4233 17.7196
14847 31.1769 -23.4332 21.4707
13525 32.8096 -20.3997 18.4433
7155 29.6633 -21.3035 12.4078
2990 43.9204 -25.1556 38.2746
3186 38.7683 -27.7887 39.5395
12446 40.9477 -26.3352 36.6192
13524 42.1344 -27.9925 42.751
18620 36.8315 -12.9467 -37.1678
22442 39.4201 -14.5407 -32.1576
13132 37.0253 -12.2336 -33.8241
2646 31.3286 -12.926 -2.42041
12348 30.4116 -12.9564 -8.12591
20972 32.7698 -11.5288 -5.38454
11515 30.5011 -8.94128 -6.21387
7987 31.5188 -14.6383 -5.44215
10535 32.8312 -0.310991 34.7577
8527 32.7386 -4.97273 35.3472
5587 31.8342 -5.45707 38.9324
3577 29.8677 -2.27275 39.7432
14799 35.4262 -2.76696 35.6422
24990 34.3382 8.0434 -6.77765
12986 32.8146 8.32948 -2.91596
8526 39.4031 6.47498 -0.369127
23422 39.5299 13.03 -6.39501
10585 40.3481 12.4678 -2.22829
11467 37.8159 7.81318 -6.7273
23226 36.3996 11.332 -6.74294
4312 35.0838 5.9123 -4.18326
3872 34.5666 10.4836 -1.0543
5685 38.1059 9.9228 -1.19656
7939 38.6926 6.91538 -3.57948
11858 40.1017 10.1632 -8.23334
8478 41.5241 7.63126 -5.49975
17640 36.5498 12.4339 -2.98131
21120 42.7512 11.1806 -4.32143
7596 34.4846 4.41132 0.377569
24305 33.8189 0.69157 38.5437
15582 42.8959 3.94735 54.7674
24353 43.5346 2.04234 57.5643
148 42.4501 0.653086 54.33
25088 44.2144 2.10088 51.3624
13671 30.9724 24.4344 -37.4585
9604 31.8664 26.7501 -39.7636
12887 32.1856 19.8304 -40.9504
2009 35.2395 24.6855 -39.0032
10388 33.1263 22.0296 -43.6706
11761 35.406 21.1474 -40.9957
2941 31.5009 25.3273 -43.0648
24794 33.1873 21.1545 -37.5886
196 29.961 21.575 -38.9585
3676 30.0336 27.4008 -6.10671
21168 33.6343 26.8347 22.0157
23570 36.3187 28.7503 22.179
17788 29.6761 26.3268 21.4794
16710 32.3651 24.1989 23.6826
4018 31.8716 28.966 27.6059
23618 33.8322 26.3008 26.3803
19552 30.4976 24.6208 26.6888
10487 38.6101 25.9373 45.485
8085 35.4034 26.0844 46.898
14897 36.8644 22.6908 46.9695
10781 39.2142 27.7578 51.0682
24402 41.0881 27.0813 47.8771
11222 35.575 27.3122 50.0397
19600 38.3176 24.17 52.1104
25040 41.5607 23.5872 48.3189
11809 42.2547 43.9461 -11.7332
6469 31.4731 29.5976 21.8689
24647 30.7526 30.827 25.0594
13721 36.1396 30.0399 26.7872
7252 39.3337 42.9619 46.0135
2156 33.5287 43.3298 46.9852
21413 39.3831 43.4555 50.9542
14063 33.3927 43.6763 50.3458
15337 37.9517 40.5069 48.7279
16317 34.5631 40.6464 48.9473
22050 36.6031 50.4767 -48.2068
18033 42.9787 49.5298 -48.9553
14603 41.6781 53.7621 -47.6286
20532 38.3502 51.5624 -50.7632
24354 39.197 47.5543 -48.3356
197 38.0826 51.1425 -44.6029
2304 42.2569 50.1949 -45.2634
18277 29.6413 57.3706 -35.2138
3822 42.1614 48.3277 -12.5604
16366 43.5218 45.4231 -14.6118
16758 43.5461 48.8005 -9.26678
16563 40.0701 47.7016 22.1783
7204 41.2755 53.4889 22.3303
3970 35.4293 51.6769 21.5954
23227 44.0103 53.27 20.35
20140 36.8822 48.1701 20.1261
10437 38.2445 54.3368 20.5414
14162 43.1139 50.3887 18.079
4068 37.6193 51.8246 18.4354
3332 39.6365 54.0264 16.2096
13769 40.0025 49.269 18.7084
785 36.7657 49.0496 23.4056
23520 40.6878 50.5157 24.3464
18032 37.93 53.2207 24.0277
12104 35.9971 45.1343 45.3936
15485 36.3539 45.6741 51.3914
1079 35.9501 49.2176 49.8659
17101 38.2233 46.9556 48.3546
6371 56.0767 -45.9781 43.3425
15043 54.5365 -30.3179 -24.793
442 53.9666 -29.9821 -28.5365
8428 56.5034 -33.0421 -26.5195
22197 57.4471 -30.1642 -30.3109
9703 55.1963 -40.3682 44.0084
7400 58.1003 -38.7312 42.5032
21364 57.5857 -42.3906 42.5272
19110 46.4988 -32.6767 37.6258
13035 58.7816 -39.1428 48.4499
24109 55.3257 -40.5556 47.4392
8379 58.1438 -42.691 48.2384
16857 52.9277 -43.6791 47.2268
17347 55.1791 -26.9881 -26.5272
8380 58.5028 -27.2131 -28.9585
23766 58.1182 -20.2539 -12.6414
20924 57.5071 -29.0901 -23.4519
7301 50.0161 -16.3725 32.7494
14161 53.2909 -17.6314 32.4961
21218 45.7464 -29.1645 39.1486
3529 55.3129 -15.897 35.5668
4116 44.5294 -28.4191 36.0041
1372 50.4572 -2.30882 -26.2096
24304 47.6618 -3.74106 -24.3326
3724 51.9143 -1.71435 -19.7834
23178 48.2334 -0.817786 -19.8683
12300 49.9483 -5.37316 -21.7431
19699 53.9968 -2.65042 -22.7928
13622 52.0513 -6.02175 22.72
16906 54.7241 -1.63914 18.1825