ITEM: TIMESTEP
0
ITEM: NUMBER OF ATOMS
200
ITEM: BOX BOUNDS xy xz yz pp pp pp
-5.8960469206177883e+01 5.8960469206177883e+01 0.0000000000000000e+00
-5.8960469206177883e+01 5.8960469206177883e+01 0.0000000000000000e+00
-5.8960469206177883e+01 5.8960469206177883e+01 0.0000000000000000e+00
ITEM: ATOMS id x y z
25286 -51.7505 -56.023 -8.5729
25256 -51.5523 -44.7175 11.3279
25156 -48.0641 -39.8938 -48.5029
25184 -44.625 -31.3466 -34.0195
25241 -49.6179 -42.0987 12.4689
25128 -57.0656 -40.9184 43.3498
25221 -56.8028 -41.6176 47.0687
25199 -56.608 -18.77 -12.5142
25147 -54.2256 -18.7944 4.38448
25089 -52.3115 -19.4139 7.0512
25245 -55.8906 -14.0293 -50.2411
25243 -46.3156 -13.3681 50.0032
25166 -53.4209 8.57309 -7.24269
25145 -54.3963 5.31959 -6.69266
25161 -51.0724 5.57638 -6.91963
25246 -52.933 28.137 -57.9378
25249 -50.7027 25.4793 4.16468
25191 -54.5047 31.1521 -57.3554
25171 -46.1263 40.633 -14.7929
25232 -56.5361 30.6825 34.4246
25242 -53.812 30.0558 57.3903
25260 -50.625 53.231 -38.3423
25131 -54.2746 44.9682 12.226
25108 -49.7301 52.7791 49.7067
25220 -41.7765 -29.8873 -32.6976
25094 -40.2354 -31.8926 -30.369
25244 -42.3541 -29.5624 -29.2394
25230 -30.8431 -43.052 14.9906
25195 -41.0571 -26.826 -27.8628
25213 -30.6191 -11.4968 -28.0308
25148 -33.7411 -2.51021 14.0099
25165 -38.3168 13.2303 -49.3914
25285 -32.7328 0.674247 14.5918
25104 -34.9734 0.117524 12.0349
25180 -40.586 14.9735 -47.8451
25114 -32.2931 23.6141 3.8227
25284 -39.8985 26.6777 29.8862
25209 -36.7575 25.6338 29.3737
25149 -36.7869 45.4872 54.198
25133 -29.1014 -46.613 -37.3457
25152 -26.0438 -44.3589 -11.6056
25206 -29.3785 -44.9338 20.3014
25203 -26.4298 -46.9735 15.7728
25277 -19.4001 -45.4481 53.6076
25235 -28.3556 -44.1733 -39.7022
25188 -21.6593 -41.3334 -13.4691
25189 -26.5986 -40.9515 -16.246
25093 -24.9197 -41.6438 -13.3719
25136 -26.4656 -40.8806 -10.4506
25173 -29.0277 -42.5006 17.8984
25179 -28.5579 -39.3148 18.7818
25110 -27.4012 -43.5951 15.1646
25217 -25.6945 -35.7172 41.1721
25237 -27.3544 -33.4406 43.3998
25282 -21.3876 -42.8856 52.3949
25091 -20.6717 -16.6821 -14.6539
25182 -29.379 -12.9227 -53.0015
25265 -23.1019 -14.7066 -13.6379
25259 -23.0534 -14.2166 -10.2337
25208 -15.6061 -5.32126 22.1791
25247 -14.8425 -10.9379 22.5176
25205 -26.8702 -3.21267 39.169
25146 -25.899 -5.61854 37.0535
25283 -15.7379 14.3091 19.2301
25211 -27.0722 24.3023 -40.3416
25099 -29.0442 25.1288 4.13489
25090 -29.3382 23.5825 1.03336
25097 -25.0047 34.3017 -55.2218
25095 -20.558 38.7758 -19.6249
25192 -17.9692 37.1389 -20.8777
25271 -18.0311 38.8825 34.0755
25266 -18.3414 51.9506 -33.8362
25163 -15.9016 53.9201 -35.3059
25224 -15.5178 55.3347 -3.24701
25198 -23.2651 50.5489 27.2491
25112 -8.12751 -58.807 29.856
25279 -7.04692 -43.7943 -33.8108
25155 -10.9621 -31.2903 4.66999
25251 -5.99091 -31.5158 36.9418
25144 -6.24035 -33.0409 39.9469
25123 -4.19188 -30.4694 39.7706
25229 -12.35 -22.8103 -47.6977
25162 -9.50593 -24.8184 2.772
25204 -10.0538 -28.2128 3.43422
25154 -9.60097 -26.127 6.23997
25250 -12.1985 -5.93618 21.3044
25201 -13.9379 -7.83679 23.5071
25214 -12.7448 -7.28325 26.7005
25267 -12.4824 -7.10457 51.9462
25258 -9.56591 7.64841 -35.0494
25210 -6.58705 2.77538 -7.75034
25120 -5.80127 0.00917813 -6.07535
25287 -9.00075 0.403403 -7.16376
25157 -10.8034 14.0681 16.4977
25216 -5.88285 26.3258 0.00706889
25140 -12.538 15.2491 19.2718
25127 -11 15.1151 22.2455
25107 -5.75305 48.5424 -54.8162
25106 -5.83847 47.4907 -51.5481
25218 -6.27394 45.2858 -54.0106
25122 -12.9415 57.7482 -3.65467
25280 12.2631 -55.5618 5.04522
25275 9.12411 -56.0993 3.56105
25130 7.53188 -50.9036 35.3685
25159 7.92911 -49.8963 38.6295
25272 6.95312 -47.4031 36.4563
25227 13.0473 -21.7833 -33.8762
25139 12.867 -20.6601 -5.06523
25177 8.57548 -8.23316 41.1851
25118 9.06325 -8.13352 44.589
25153 11.2048 -10.0058 42.6486
25238 4.36044 8.78168 -48.0976
25174 2.35546 9.07198 -45.3624
25129 11.4696 11.2214 -1.10189
25176 5.06681 14.7453 41.8541
25185 2.5387 14.9733 44.2948
25175 5.49181 31.7005 -31.4032
25223 7.12395 34.5887 -32.2507
25222 13.1517 37.7846 28.7851
25257 9.99309 39.0712 28.7668
25187 5.98805 49.8041 -11.6648
25252 10.0918 49.658 43.7955
25170 12.5327 48.8143 46.1306
25264 9.98504 49.0358 48.9399
25263 22.8526 -44.3448 21.4788
25226 17.9365 -42.3321 -45.2665
25101 29.0736 -34.4045 -18.926
25236 28.1366 -36.629 -21.2758
25278 27.9897 -33.2042 -21.9238
25207 20.3903 -42.1227 21.478
25202 21.8862 -43.437 24.7158
25137 14.9647 -19.1214 -34.5376
25181 20.8608 -16.4568 54.0668
25141 29.1232 -12.0737 -5.13688
25116 20.8883 -0.543904 21.5819
25121 17.7165 6.57657 -27.4611
25124 17.5771 3.2442 -28.4131
25183 19.4278 2.28029 23.0123
25169 29.0141 24.8675 -40.4467
25096 23.5838 25.7969 -6.58803
25125 26.6735 27.7414 -5.72241
25190 17.8059 17.1286 51.969
25200 20.5246 41.6882 -45.7447
25111 26.2036 56.977 -35.5808
25239 28.5309 53.9993 -35.3578
25269 25.3185 53.8712 -33.8857
25270 23.1084 45.182 -2.38545
25274 39.5198 -44.9745 -41.0555
25164 38.8803 -50.3043 -7.83974
25160 35.138 -54.354 -9.21863
25135 38.0801 -53.8243 -7.59209
25219 33.6328 -52.9768 58.3401
25092 39.1151 -39.8935 11.6417
25225 38.735 -40.1241 14.9394
25126 40.1044 -37.0929 13.5321
25253 43.1753 -31.3464 37.7066
25186 34.9856 -28.4136 -56.2541
25119 37.6612 -15.5253 -35.0042
25234 30.7912 -21.0484 15.7014
25103 29.678 -21.8351 18.8916
25197 42.297 -28.3109 39.0381
25240 39.9937 -12.9305 -35.4524
25113 32.4057 -2.39007 37.5441
25231 39.1546 10.3101 -4.54403
25254 36.0054 7.18407 -1.1326
25132 41.2368 8.97532 -2.07737
25143 36.0939 9.10784 -3.93289
25115 29.9515 22.2022 -42.418
25109 32.4992 23.2484 -40.5424
25172 31.09 27.3183 24.5275
25276 33.7283 29.2695 24.5032
25193 38.265 25.0779 48.9002
25142 37.9391 28.3431 47.9251
25134 36.3327 41.4423 45.9579
25102 36.2721 42.0549 51.6518
25215 36.7996 43.7379 48.5485
25212 39.9647 50.8433 -47.7091
25178 40.9081 52.6976 19.0979
25248 38.8076 50.9523 21.3828
25255 42.091 50.2971 21.1994
25168 34.6475 46.418 48.3383
25196 57.2092 -29.6885 -26.9491
25138 58.2106 -40.6979 45.4332
25288 56.7271 -37.6926 45.8086
25261 55.993 -43.2784 45.5047
25105 50.1581 -1.99762 -22.5757
25228 53.2738 -4.08892 20.1548
25167 53.9147 -0.953487 21.3559
25098 49.6211 -4.59114 20.3811
25273 56.2836 -0.404451 23.5124
25151 54.3078 -3.52489 23.5036
25233 52.8182 -14.329 33.6776
25281 53.6896 9.1847 -38.3796
25100 55.676 9.10952 -41.5571
25268 53.3611 1.49573 19.0869
25150 51.2226 0.976754 21.6356
25262 45.6289 1.89987 54.7413
25194 49.9276 48.0227 -29.917
25158 47.54 50.6698 -30.0468
25117 44.8853 46.6184 -11.6583
ITEM: TIMESTEP
100
ITEM: NUMBER OF ATOMS
200
ITEM: BOX BOUNDS xy xz yz pp pp pp
-5.8953536846885783e+01 5.8953536846885783e+01 0.0000000000000000e+00
-5.8953536846885783e+01 5.8953536846885783e+01 0.0000000000000000e+00
-5.8953536846885783e+01 5.8953536846885783e+01 0.0000000000000000e+00
ITEM: ATOMS id x y z
25286 -51.6536 -56.1056 -8.70229
25256 -51.5755 -44.7148 11.2008
25156 -48.0834 -39.6892 -48.4115
25184 -44.584 -31.292 -34.1011
25241 -49.7137 -42.1313 12.4888
25128 -57.218 -41.1009 43.4821
25221 -57.0727 -41.4068 47.1703
25199 -56.6914 -18.8305 -12.513
25147 -54.2807 -18.8148 4.3178
25089 -52.3544 -19.3444 7.00989
25245 -55.9319 -14.1583 -50.2557
25243 -46.3599 -13.4324 50.1745
25166 -53.355 8.56826 -7.32363
25145 -54.4828 5.34611 -6.70678
25161 -51.0251 5.57285 -7.12813
25246 -52.7957 28.075 -57.8436
25249 -50.9423 25.5861 4.14777
25191 -54.6847 31.1365 -57.3338
25171 -46.076 40.7494 -14.9443
25232 -56.4509 30.7388 34.4456
25242 -53.9437 29.9826 57.4598
25260 -50.4776 53.3227 -38.3879
25131 -54.1829 45.021 12.1651
25108 -49.8038 52.774 49.7263
25220 -41.7217 -29.895 -32.8037
25094 -40.1761 -31.9548 -30.2894
25244 -42.2482 -29.5695 -29.2479
25230 -30.8153 -43.0237 15.0513
25195 -40.9674 -26.7528 -27.8031
25213 -30.5595 -11.5645 -27.794
25148 -33.7253 -2.40308 13.9927
25165 -38.3875 13.2822 -49.274
25285 -32.6095 0.616768 14.6434
25104 -35.1044 0.0589285 12.1336
25180 -40.5559 15.1957 -47.7929
25114 -32.0791 23.6522 3.82615
25284 -40.0142 26.6813 29.8613
25209 -36.7332 25.6996 29.3097
25149 -36.7925 45.2545 54.1186
25133 -29.0959 -46.5651 -37.3675
25152 -26.1662 -44.4589 -11.6619
25206 -29.2687 -44.9366 20.2168
25203 -26.5399 -46.8013 15.6409
25277 -19.2388 -45.4866 53.6039
25235 -28.5757 -44.1433 -39.7065
25188 -21.5549 -41.3003 -13.3126
25189 -26.4872 -40.658 -16.1127
25093 -25.0164 -41.6635 -13.3266
25136 -26.6433 -40.9098 -10.3099
25173 -29.0078 -42.6096 17.9441
25179 -28.5675 -39.2962 18.7258
25110 -27.237 -43.47 15.2174
25217 -25.8232 -35.7064 41.2372
25237 -27.2762 -33.5121 43.3758
25282 -21.4742 -42.6906 52.2524
25091 -20.735 -16.6854 -14.6759
25182 -29.428 -13.0755 -53.2403
25265 -22.9872 -14.5501 -13.7301
25259 -22.9494 -14.1029 -10.2531
25208 -15.5549 -5.16353 22.1961
25247 -14.8176 -11.0913 22.6583
25205 -26.8652 -3.23075 39.138
25146 -25.993 -5.67297 36.9708
25283 -15.7981 14.1626 19.1396
25211 -27.1537 24.1303 -40.2968
25099 -28.9996 25.356 4.14979
25090 -29.3263 23.5262 1.16109
25097 -24.9472 34.4089 -55.2182
25095 -20.5937 38.7361 -19.541
25192 -17.9621 37.1587 -20.9586
25271 -18.0224 38.7225 34.1467
25266 -18.4168 51.9855 -33.8258
25163 -15.9976 53.9791 -35.3003
25224 -15.4402 55.5292 -3.31728
25198 -23.3006 50.7814 27.2363
25112 -7.96551 -58.7244 29.7536
25279 -7.07447 -43.6352 -33.849
25155 -10.9228 -31.2148 4.77969
25251 -5.93216 -31.5825 36.9172
25144 -6.40808 -33.1209 39.9693
25123 -4.23264 -30.5046 39.7095
25229 -12.3855 -22.8525 -47.6798
25162 -9.63016 -24.9065 2.91673
25204 -10.1503 -28.1995 3.57247
25154 -9.55808 -26.1456 6.21807
25120 -5.75148 -0.1331 -5.88863
25250 -12.2974 -5.91423 21.2778
25201 -13.9743 -7.76381 23.4891
25214 -12.7534 -7.51716 26.5418
25267 -12.2155 -7.14849 52.0033
25258 -9.65335 7.62409 -35.048
25210 -6.40422 2.82992 -7.73252
25287 -9.06306 0.397911 -6.9621
25157 -10.8943 14.0524 16.5443
25216 -5.87854 26.2227 0.202699
25140 -12.536 15.1674 19.3823
25127 -10.9908 15.0931 22.2791
25107 -5.71443 48.5111 -54.7022
25106 -5.72225 47.414 -51.5107
25218 -6.18619 45.2605 -53.9656
25122 -12.9568 57.8426 -3.73325
25280 12.3442 -55.4862 5.00603
25275 9.07891 -56.1429 3.67859
25130 7.57465 -50.8772 35.393
25159 7.98841 -49.8224 38.4445
25272 6.85526 -47.4729 36.3911
25227 13.0074 -21.8386 -33.9344
25139 12.8486 -20.5945 -5.24914
25177 8.59937 -8.02548 41.0249
25118 9.07594 -8.04713 44.485
25153 11.3213 -10.0263 42.831
25238 4.19851 8.75695 -48.172
25174 2.2523 9.12891 -45.3379
25129 11.4452 11.091 -1.21536
25176 5.1118 14.7639 41.9171
25185 2.6083 14.9259 44.1316
25175 5.47455 31.7917 -31.2455
25223 7.08189 34.6408 -32.1488
25222 13.0602 37.6466 28.6538
25257 9.76728 39.0772 28.5084
25187 6.1017 49.8361 -11.4767
25252 10.2087 49.4874 43.9471
25170 12.7248 48.752 46.1426
25264 10.0826 49.0129 48.8222
25263 22.7955 -44.4728 21.5396
25226 17.946 -42.459 -45.2337
25101 29.216 -34.4108 -18.8886
25236 28.0831 -36.5087 -21.3409
25278 28.0974 -33.1924 -21.9599
25207 20.3242 -42.1548 21.6349
25202 21.5915 -43.4624 24.6325
25137 15.0206 -19.1209 -34.5653
25181 20.9271 -16.4605 54.0776
25141 29.0935 -12.1234 -5.25336
25116 21.0328 -0.613988 21.7194
25121 17.7448 6.5994 -27.5441
25124 17.7404 3.16965 -28.5776
25183 19.418 2.35887 23.085
25169 29.1715 24.745 -40.4447
25096 23.6107 25.9771 -6.56144
25125 26.6148 27.7372 -5.91381
25190 17.8343 16.9799 51.9626
25200 20.7019 41.6402 -45.5478
25111 26.2536 56.8925 -35.4804
25239 28.6168 54.2228 -35.3292
25269 25.4006 53.9668 -33.8633
25270 23.0918 45.2613 -2.41208
25274 39.5656 -44.9648 -40.9314
25164 38.9719 -50.2954 -7.69338
25160 35.2736 -54.3509 -9.38991
25135 38.1891 -53.7882 -7.57788
25219 33.5731 -53.1161 58.345
25092 39.122 -39.8224 11.6277
25225 38.8064 -40.071 15.0254
25126 40.125 -37.2009 13.5599
25253 43.2086 -31.4543 37.8517
25186 34.9132 -28.346 -56.2169
25119 37.7779 -15.4825 -35.0604
25234 30.8139 -21.174 15.684
25103 29.5929 -21.7975 18.8145
25197 42.1761 -28.4717 39.011
25240 39.7382 -12.6421 -35.5488
25113 32.4868 -2.29297 37.5263
25231 39.0743 10.2231 -4.67088
25254 36.0541 7.29891 -1.00641
25132 41.1769 8.85145 -2.37132
25143 36.0604 9.09586 -3.86597
25115 30.0482 22.1753 -42.4186
25109 32.5019 23.1969 -40.3673
25172 31.0022 27.2024 24.445
25276 33.8121 29.3199 24.5833
25193 38.2411 25.209 48.8396
25142 37.8611 28.3211 47.7135
25134 36.2779 41.4305 46.0019
25102 36.3538 42.1243 51.6336
25215 36.6303 43.6888 48.6523
25212 40.1018 50.7889 -47.7436
25178 40.8212 52.5675 19.0584
25248 38.8585 51.0024 21.4201
25255 42.2018 50.4079 21.3784
25168 34.6627 46.4341 48.3355
25196 57.2422 -29.6061 -26.7671
25138 58.0291 -40.76 45.5142
25288 56.846 -37.6709 45.8122
25261 55.9204 -43.3842 45.4279
25105 50.19 -1.85494 -22.7217
25228 53.3554 -3.94437 20.2202
25167 53.892 -0.947495 21.4353
25098 49.6002 -4.48375 20.442
25151 54.2928 -3.50235 23.5728
25233 52.825 -14.5111 33.8028
25273 56.3474 -0.46385 23.5907
25281 53.6593 9.19441 -38.5222
25100 55.719 8.97807 -41.5433
25268 53.5361 1.40596 19.01
25150 51.0825 1.0834 21.6966
25262 45.4501 2.00608 54.7862
25194 49.7957 48.012 -29.9893
25158 47.5646 50.5089 -30.0049
25117 44.8589 46.476 -11.514
ITEM: TIMESTEP
200
ITEM: NUMBER OF ATOMS
200
ITEM: BOX BOUNDS xy xz yz pp pp pp
-5.8928620200874796e+01 5.8928620200874796e+01 0.0000000000000000e+00
-5.8928620200874796e+01 5.8928620200874796e+01 0.0000000000000000e+00
-5.8928620200874796e+01 5.8928620200874796e+01 0.0000000000000000e+00
ITEM: ATOMS id x y z
25286 -51.5959 -56.0066 -8.83192
25256 -51.5614 -44.6978 11.2675
25156 -48.1725 -39.5696 -48.15
25184 -44.5819 -31.3296 -33.9913
25241 -49.6724 -42.1992 12.7227
25128 -57.2969 -41.1341 43.5015
25221 -56.9623 -41.2076 47.2207
25199 -56.7557 -18.5516 -12.5502
25147 -54.1717 -18.914 4.25245
25089 -52.3794 -19.3645 6.99816
25245 -55.9499 -14.0345 -50.2452
25243 -46.5664 -13.2184 50.2479
25166 -53.3125 8.41206 -7.44678
25145 -54.4493 5.2222 -6.62943
25161 -51.1191 5.51536 -7.06389
25246 -52.847 28.1057 -57.8511
25249 -50.9868 25.6001 4.15409
25191 -54.82 31.1293 -57.3728
25171 -46.1017 40.8037 -14.7384
25232 -56.5204 30.7113 34.5217
25242 -54.0114 29.9642 57.4013
25260 -50.4024 53.3748 -38.1706
25131 -54.1545 44.9701 12.0741
25108 -49.8253 52.8758 49.6241
25220 -41.7396 -29.7928 -32.7192
25094 -40.2151 -31.899 -30.3139
25230 -30.6593 -42.9927 15.1146
25244 -42.2098 -29.4557 -29.3129
25195 -41.0064 -26.6448 -27.8906
25182 -29.4654 -13.003 -53.2764
25213 -30.5687 -11.5179 -27.7736
25148 -33.787 -2.52785 14.0288
25165 -38.1962 13.1391 -49.0989
25104 -34.8885 0.331164 11.8964
25285 -32.7327 0.709852 14.6217
25180 -40.5255 15.0441 -47.5513
25114 -31.9193 23.6144 3.8138
25284 -39.9197 26.6455 29.9665
25209 -36.5845 25.651 29.3372
25149 -36.5613 45.4143 54.0419
25133 -29.1648 -46.5231 -37.4499
25152 -26.0314 -44.4724 -11.7333
25206 -29.4002 -45.0903 20.3022
25203 -26.3399 -46.7169 15.6951
25277 -19.2266 -45.3422 53.4378
25235 -28.4452 -44.1148 -39.8337
25188 -21.6926 -41.2743 -13.4165
25189 -26.5167 -40.6287 -16.076
25093 -25.0095 -41.6093 -13.2812
25136 -26.466 -40.9357 -10.2076
25173 -29.1335 -42.5947 17.9885
25179 -28.5875 -39.3608 18.8239
25110 -27.2002 -43.5223 15.2659
25217 -25.8812 -35.7274 41.1888
25237 -27.316 -33.4482 43.4091
25282 -21.2447 -42.6249 52.3168
25091 -20.5906 -16.6555 -14.6265
25265 -23.046 -14.5123 -13.5403
25259 -23.0102 -13.9986 -10.1785
25208 -15.5631 -5.20519 22.1393
25247 -14.88 -10.9523 22.5475
25205 -26.8514 -3.26115 38.9229
25146 -25.8631 -5.70769 36.8222
25283 -15.8466 14.2251 19.3457
25211 -27.2097 24.1589 -40.2625
25099 -29.0517 25.2962 4.1702
25090 -29.3717 23.591 1.13288
25097 -25.0017 34.2812 -55.3219
25095 -20.6178 38.5602 -19.4327
25192 -18.0028 37.2589 -21.0845
25271 -17.9087 38.7331 34.3347
25266 -18.5086 51.96 -33.8499
25163 -16.0754 53.9135 -35.2222
25224 -15.4825 55.5874 -3.08025
25198 -23.3025 50.6249 27.1048
25112 -7.68672 -58.6598 29.8574
25279 -7.18576 -43.656 -34.0348
25155 -10.9045 -31.3615 4.77015
25251 -6.03189 -31.5119 36.8393
25144 -6.38954 -33.0241 40.0472
25123 -4.26638 -30.4417 39.7442
25229 -12.4228 -22.7217 -47.653
25162 -9.62258 -24.7982 2.90256
25204 -10.2 -28.1563 3.63308
25154 -9.48545 -26.0745 6.31365
25120 -5.8133 -0.140107 -5.82571
25250 -12.2343 -5.83965 21.1771
25201 -13.8914 -7.88228 23.4178
25214 -12.8918 -7.6027 26.6197
25267 -12.1999 -7.12565 51.9161
25258 -9.70411 7.72154 -35.144
25287 -9.11113 0.254336 -7.09683
25210 -6.54265 3.02599 -7.66532
25157 -10.8238 14.0994 16.5984
25216 -5.88547 26.2311 0.329773
25140 -12.5305 15.2925 19.3392
25127 -10.8496 15.0995 22.4344
25107 -5.82859 48.4633 -54.6189
25106 -5.65131 47.5043 -51.4895
25218 -6.35421 45.2173 -53.8363
25122 -12.9388 57.9428 -3.64546
25280 12.3656 -55.4194 4.90898
25275 9.1279 -55.9495 3.63532
25159 8.07084 -49.7375 38.6498
25272 6.81877 -47.4322 36.4423
25130 7.56262 -50.7099 35.449
25227 13.1024 -21.8949 -33.8275
25139 12.7355 -20.6265 -5.32659
25177 8.50518 -8.17586 40.9654
25118 9.09796 -8.0706 44.5985
25153 11.0784 -10.0957 42.7699
25238 4.22705 8.84784 -48.2427
25174 2.284 9.10556 -45.4027
25129 11.4231 11.2464 -1.26393
25185 2.52201 14.9231 44.215
25176 5.05282 14.8803 41.8584
25175 5.47123 31.788 -31.1456
25223 7.2573 34.573 -32.0611
25222 12.9024 37.7188 28.6295
25257 9.83279 38.8951 28.6784
25187 5.85065 49.7723 -11.4793
25252 10.0615 49.4078 43.9901
25170 12.6281 48.7022 45.9837
25264 10.1793 49.0635 48.809
25263 22.856 -44.3709 21.6051
25226 18.0574 -42.4516 -45.3011
25101 29.141 -34.3913 -18.8933
25236 28.2178 -36.5587 -21.3105
25278 28.1774 -33.0752 -21.9538
25207 20.2082 -42.1775 21.7016
25202 21.7727 -43.4034 24.6279
25137 14.9704 -19.1758 -34.5307
25103 29.4784 -21.791 18.7996
25181 20.9047 -16.5826 54.0283
25141 28.9276 -12.1737 -5.27475
25116 20.99 -0.548386 21.8262
25121 17.9498 6.61365 -27.4107
25124 17.7547 3.08716 -28.5033
25183 19.3381 2.36517 22.8665
25169 29.096 24.807 -40.363
25096 23.7422 25.8421 -6.57656
25125 26.4414 27.8545 -5.90383
25190 18.0075 16.9422 51.9803
25200 20.8081 41.6367 -45.6628
25111 26.2133 56.8283 -35.4504
25239 28.633 54.0688 -35.3486
25269 25.2122 53.9284 -33.7625
25270 23.1165 45.3577 -2.62155
25274 39.576 -44.9071 -40.9657
25164 38.6251 -50.3893 -7.75228
25160 35.131 -54.3204 -9.37238
25135 38.066 -53.8115 -7.59495
25219 33.654 -53.0557 58.375
25092 39.1844 -39.8629 11.5198
25225 38.7969 -39.9983 15.0384
25126 40.1366 -37.258 13.5258
25253 43.3003 -31.4998 37.8792
25186 34.7678 -28.2712 -56.2099
25119 37.6343 -15.4917 -35.0043
25234 30.6737 -20.9738 15.6723
25197 42.227 -28.5691 39.0406
25240 39.865 -12.6685 -35.588
25113 32.4704 -2.33656 37.3315
25231 39.0571 10.3221 -4.6192
25254 36.1477 7.20191 -1.02599
25132 41.1509 8.82461 -2.34493
25143 36.0515 9.08805 -3.88369
25115 29.9944 22.2245 -42.4316
25109 32.5687 23.212 -40.2919
25172 30.9328 27.1709 24.4023
25276 33.7816 29.3268 24.8629
25193 38.2646 25.2155 48.6934
25142 37.7184 28.4565 47.7268
25134 36.4138 41.3283 46.074
25102 36.4515 42.2494 51.6001
25215 36.6613 43.5702 48.5271
25212 40.0457 50.9763 -47.7964
25178 40.8608 52.372 19.2662
25248 38.8753 50.9744 21.3985
25255 42.2661 50.2341 21.4485
25168 34.6657 46.4533 48.2615
25196 57.3032 -29.6651 -26.8968
25138 57.9753 -40.8095 45.5597
25288 56.6255 -37.6993 45.7306
25261 55.9773 -43.4274 45.3298
25105 50.1582 -1.94629 -22.8305
25228 53.2285 -4.06262 20.0529
25167 53.8673 -0.899961 21.2427
25098 49.5416 -4.42583 20.372
25151 54.1993 -3.51826 23.3655
25233 52.7391 -14.4321 33.6683
25273 56.2475 -0.389747 23.608
25281 53.6742 9.15648 -38.4586
25100 55.7145 8.94361 -41.4758
25268 53.521 1.59721 19.0198
25150 51.1175 1.03349 21.7286
25262 45.4543 1.97844 54.8102
25194 49.7366 47.9133 -29.8288
25158 47.6708 50.5129 -30.0073
25117 44.8571 46.5154 -11.5691
ITEM: TIMESTEP
300
ITEM: NUMBER OF ATOMS
200
ITEM: BOX BOUNDS xy xz yz pp pp pp
-5.8924872560442516e+01 5.8924872560442516e+01 0.0000000000000000e+00
-5.8924872560442516e+01 5.8924872560442516e+01 0.0000000000000000e+00
-5.8924872560442516e+01 5.8924872560442516e+01 0.0000000000000000e+00
ITEM: ATOMS id x y z
25286 -51.6073 -56.2043 -8.74391
25256 -51.516 -44.8434 11.2403
25156 -48.0216 -39.5965 -48.2863
25184 -44.3721 -31.3876 -33.7698
25241 -49.7628 -42.2486 12.6459
25128 -57.3784 -41.2581 43.4461
25221 -56.9487 -41.3125 47.0569
25199 -56.728 -18.4648 -12.4652
25147 -54.0109 -19.0316 4.22135
25089 -52.2175 -19.3107 6.95904
25245 -55.7009 -13.9415 -50.1561
25243 -46.3871 -13.2831 50.2163
25166 -53.288 8.45599 -7.29986
25145 -54.5295 5.26278 -6.62206
25161 -51.2111 5.44932 -7.11501
25246 -52.8465 28.1397 -57.8867
25249 -51.1024 25.509 4.16137
25191 -54.9455 31.014 -57.2878
25171 -46.1213 40.9301 -14.733
25232 -56.5012 30.7844 34.398
25242 -54.0327 29.8315 57.4055
25260 -50.4215 53.5137 -38.2431
25131 -54.1638 44.9642 12.2821
25108 -49.8702 52.7653 49.4637
25220 -41.7223 -29.6331 -32.761
25094 -40.1376 -31.8472 -30.2224
25230 -30.7922 -42.8712 15.1624
25244 -42.302 -29.3767 -29.3075
25195 -40.9722 -26.5923 -27.8749
25213 -30.63 -11.5127 -27.757
25148 -33.7318 -2.37416 13.8951
25165 -38.1426 13.0425 -49.1194
25104 -34.8739 0.377876 11.9544
25285 -32.7448 0.684478 14.6961
25180 -40.4816 14.9745 -47.7263
25114 -31.886 23.5685 3.82175
25284 -39.8328 26.6901 29.9012
25209 -36.6763 25.7233 29.4025
25149 -36.4973 45.385 54.0947
25133 -29.3481 -46.4252 -37.4221
25152 -26.2819 -44.2905 -11.7469
25206 -29.2426 -44.9897 20.2504
25203 -26.3776 -46.6494 15.808
25277 -19.303 -45.1906 53.3855
25235 -28.4539 -44.1019 -39.8152
25188 -21.7084 -41.3245 -13.3913
25189 -26.6101 -40.5563 -16.0886
25093 -25.0128 -41.5084 -13.2151
25136 -26.6274 -40.9284 -10.3226
25173 -29.1201 -42.5906 17.9601
25179 -28.4493 -39.5057 18.8693
25110 -27.1768 -43.4768 15.4005
25217 -25.7972 -35.5174 41.1204
25237 -27.1483 -33.4978 43.4746
25282 -21.355 -42.7628 52.3574
25091 -20.762 -16.7506 -14.6238
25182 -29.4217 -12.8587 -53.2952
25265 -23.081 -14.6325 -13.6039
25259 -22.9097 -14.1077 -10.1961
25208 -15.5631 -5.27844 22.2837
25247 -14.783 -10.87 22.2835
25205 -26.9253 -3.20817 38.9655
25146 -25.9144 -5.58382 36.76
25283 -15.8286 14.2152 19.3
25211 -27.1915 24.0849 -40.5
25099 -29.0169 25.3164 4.30038
25090 -29.4179 23.6624 1.28136
25097 -25.0017 34.3463 -55.2359
25095 -20.6444 38.6271 -19.5219
25192 -18.0341 37.1278 -21.0861
25271 -18.043 38.8473 34.1639
25266 -18.5162 52.081 -33.8772
25163 -16.1807 53.9738 -35.1939
25224 -15.529 55.6026 -3.31441
25198 -23.1398 50.7892 27.0039
25112 -7.73344 -58.8815 29.7742
25279 -6.88734 -43.726 -33.9108
25155 -11.0079 -31.2803 4.78896
25251 -5.78067 -31.4628 36.9715
25144 -6.27322 -33.0911 40.0345
25123 -4.02372 -30.4253 39.7767
25229 -12.378 -22.7025 -47.7454
25162 -9.45388 -24.9393 3.02789
25204 -10.1767 -28.1602 3.82641
25154 -9.51363 -26.0359 6.29483
25120 -5.81518 -0.346522 -5.82612
25250 -12.2452 -5.9651 21.1754
25201 -13.8352 -7.95227 23.372
25214 -12.7021 -7.67061 26.5205
25267 -12.1487 -7.17891 52.0334
25258 -9.6799 7.75885 -35.1408
25287 -8.98845 0.353733 -7.33238
25210 -6.57276 2.77471 -7.81798
25157 -10.8597 14.1876 16.4845
25216 -5.69013 26.237 0.225715
25140 -12.5307 15.2074 19.3622
25127 -10.9512 15.0683 22.3728
25107 -5.72247 48.4797 -54.6012
25106 -5.88141 47.3485 -51.4544
25218 -6.23737 45.108 -53.8037
25122 -12.8866 57.7584 -3.63432
25280 12.284 -55.3882 4.86734
25275 9.22375 -56.0539 3.52607
25130 7.55071 -50.6578 35.4339
25159 8.13578 -49.7513 38.6865
25272 6.77514 -47.5217 36.3638
25227 13.1672 -21.9904 -33.7807
25139 12.8567 -20.7674 -5.44953
25177 8.48533 -7.98405 40.9025
25118 9.03207 -7.93299 44.652
25153 11.1757 -10.2361 42.8026
25238 4.23784 8.79633 -48.1402
25174 2.09949 9.00307 -45.1889
25129 11.4287 11.1938 -1.25313
25185 2.51669 15.1034 44.2178
25176 5.03872 14.7094 41.8279
25175 5.58666 31.6028 -31.2485
25223 7.22002 34.4836 -32.1823
25222 13.0347 37.471 28.6955
25257 9.92978 38.8471 28.6912
25187 5.88831 49.7273 -11.6049
25252 9.91166 49.3114 43.9093
25170 12.5166 48.7057 46.1819
25264 10.024 49.2303 48.7873
25263 22.9647 -44.2308 21.4948
25226 18.1163 -42.6739 -45.2647
25101 29.169 -34.5915 -18.976
25236 28.1689 -36.6594 -21.3275
25278 28.1342 -33.0064 -21.8677
25207 20.2931 -42.2383 21.5996
25202 21.7474 -43.406 24.649
25137 15.153 -19.3474 -34.5977
25181 20.7884 -16.5358 54.2235
25141 28.9283 -12.2265 -5.17087
25116 20.867 -0.534677 21.8554
25121 17.7871 6.66781 -27.3309
25124 17.8079 3.29442 -28.4492
25183 19.3238 2.34531 22.9472
25169 29.2252 24.7172 -40.3425
25096 23.6328 25.8523 -6.64787
25125 26.3814 27.8682 -5.94023
25190 17.9627 16.8667 52.1727
25200 20.9111 41.6423 -45.5937
25111 26.2683 56.7962 -35.3864
25239 28.4381 54.0857 -35.3347
25269 25.2877 53.8877 -33.7646
25270 23.2395 45.3395 -2.46298
25274 39.5819 -44.8528 -41.0789
25164 38.7705 -50.4615 -7.82057
25160 35.1851 -54.3148 -9.31985
25135 38.2089 -53.9765 -7.43108
25219 33.7564 -53.0219 58.4161
25092 39.2178 -40.1368 11.6741
25225 38.7748 -40.0429 15.1444
25126 40.366 -37.4467 13.5523
25253 43.2641 -31.5794 37.8668
25186 34.9526 -28.4221 -56.2217
25119 37.5732 -15.5624 -34.96
25103 29.6732 -21.8574 18.8249
25234 30.476 -20.7968 15.692
25197 42.3203 -28.6146 38.9869
25240 39.9427 -12.8188 -35.6709
25113 32.3733 -2.41553 37.2187
25231 38.9487 10.2339 -4.66067
25254 36.1846 7.12974 -1.24516
25132 41.0696 8.88848 -2.27267
25143 35.9906 9.00977 -3.86235
25115 29.8513 22.1254 -42.4615
25109 32.6307 23.2052 -40.3084
25172 31.107 27.1411 24.3864
25276 33.7296 29.3236 24.8136
25193 38.2241 25.4025 48.65
25142 37.8249 28.4364 47.8124
25134 36.317 41.612 45.9201
25102 36.4429 42.2548 51.5324
25215 36.4721 43.6601 48.5818
25212 39.8932 50.9399 -47.602
25178 40.8836 52.4475 19.2578
25248 38.8361 50.88 21.4528
25255 42.2166 49.9948 21.3988
25168 34.5851 46.4695 48.322
25196 57.2905 -29.5833 -27.0042
25138 58.0359 -40.6332 45.4732
25288 56.6595 -37.68 45.536
25261 55.9726 -43.2182 45.3478
25105 50.1784 -1.95609 -22.6547
25228 53.3201 -4.03301 20.1105
25167 53.8007 -0.958011 21.3567
25098 49.56 -4.40874 20.277
25151 54.2063 -3.43926 23.4851
25273 56.2924 -0.198979 23.5728
25233 52.734 -14.3464 33.6316
25281 53.8547 9.09059 -38.4684
25100 55.6116 8.98721 -41.5239
25268 53.5553 1.58604 19.0075
25150 50.9477 1.03297 21.6746
25262 45.4761 2.01542 54.75
25194 49.8624 47.9043 -29.9537
25158 47.5672 50.4898 -29.8833
25117 44.8094 46.6193 -11.5596
ITEM: TIMESTEP
400
ITEM: NUMBER OF ATOMS
200
ITEM: BOX BOUNDS xy xz yz pp pp pp
-5.8972372298231782e+01 5.8972372298231782e+01 0.0000000000000000e+00
-5.8972372298231782e+01 5.8972372298231782e+01 0.0000000000000000e+00
-5.8972372298231782e+01 5.8972372298231782e+01 0.0000000000000000e+00
ITEM: ATOMS id x y z
25286 -51.6346 -56.034 -8.62428
25256 -51.5194 -44.8684 11.1921
25156 -48.104 -39.6649 -48.484
25184 -44.4422 -31.5161 -33.8497
25241 -49.9299 -42.2207 12.6862
25128 -57.2665 -41.2025 43.1657
25221 -56.9192 -41.2602 47.0336
25199 -56.7018 -18.62 -12.6136
25147 -54.096 -19.1109 4.14223
25089 -52.2556 -19.4032 6.99343
25245 -55.8401 -13.9804 -50.1726
25243 -46.4989 -13.3186 50.1571
25166 -53.3202 8.51146 -7.30904
25145 -54.7021 5.30225 -6.74334
25161 -51.2242 5.57413 -7.12072
25246 -53.0051 28.1106 -57.8712
25249 -51.1744 25.4167 4.13696
25191 -54.902 30.9747 -57.4179
25171 -46.2266 41.0633 -14.8134
25232 -56.6183 30.8602 34.5804
25242 -54.0554 29.89 57.3125
25260 -50.4195 53.556 -38.2113
25131 -54.3155 45.1156 12.2926
25108 -49.8293 52.7646 49.5902
25220 -41.7092 -29.442 -32.8294
25094 -40.1343 -31.7528 -30.1708
25230 -30.845 -42.9186 15.1731
25244 -42.318 -29.3838 -29.3661
25195 -40.8221 -26.62 -27.7956
25213 -30.6049 -11.6854 -27.9209
25148 -33.8472 -2.31068 13.8197
25165 -38.1234 13.0484 -49.1924
25104 -34.9856 0.439031 12.1126
25285 -32.6795 0.653823 14.6308
25180 -40.3915 14.9938 -47.743
25114 -31.9392 23.6775 3.72164
25090 -29.4295 23.4164 1.30943
25284 -39.9025 26.6922 29.756
25209 -36.7265 25.7305 29.4436
25149 -36.5804 45.4023 54.0715
25133 -29.1883 -46.3488 -37.4852
25152 -26.2848 -44.4723 -11.8905
25206 -29.3831 -45.1751 20.1767
25203 -26.4061 -46.7098 15.8996
25277 -19.2498 -45.2143 53.555
25235 -28.5271 -44.1318 -39.8443
25188 -21.7505 -41.4307 -13.3738
25189 -26.6557 -40.5725 -16.1682
25093 -25.1038 -41.6503 -13.369
25136 -26.7082 -40.9809 -10.4411
25173 -29.0404 -42.5086 17.9383
25179 -28.6281 -39.4451 19.1025
25110 -27.1453 -43.4104 15.4783
25217 -25.8361 -35.6457 40.99
25237 -27.0704 -33.623 43.4514
25282 -21.4441 -42.7457 52.3077
25091 -20.6662 -16.7281 -14.6693
25265 -23.1548 -14.8061 -13.4997
25182 -29.309 -13.013 -53.4426
25259 -22.992 -14.1085 -10.1399
25208 -15.5903 -5.40415 22.315
25205 -26.8668 -3.24363 38.8667
25146 -25.6815 -5.61689 36.8347
25283 -15.6794 14.1782 19.2715
25211 -27.0241 23.9741 -40.5235
25099 -28.9794 25.4346 4.31683
25097 -25.0072 34.4065 -55.3322
25095 -20.4304 38.7419 -19.3569
25192 -18.0796 37.1987 -21.1138
25271 -17.9212 38.835 33.9891
25266 -18.3896 52.0649 -33.9043
25163 -16.0327 54.0944 -35.1799
25224 -15.7005 55.7042 -3.33834
25198 -23.1451 50.757 27.006
25112 -7.68831 -58.6517 29.9269
25279 -6.95746 -43.8957 -33.9155
25155 -10.8825 -31.3452 4.83611
25251 -5.70553 -31.4394 36.9455
25144 -6.37574 -33.2494 39.8913
25123 -4.1559 -30.5053 39.7901
25229 -12.3629 -22.7902 -47.6487
25162 -9.6305 -25.0401 3.12006
25204 -10.2696 -28.1751 3.81758
25154 -9.53212 -26.0238 6.35685
25120 -6.01658 -0.265575 -5.94287
25250 -12.3362 -6.11136 21.1734
25201 -13.8837 -7.9903 23.5263
25247 -14.7631 -10.9421 22.2089
25214 -12.7247 -7.6489 26.7821
25267 -12.0124 -7.19177 52.0305
25258 -9.60555 7.63345 -35.3517
25287 -9.0711 0.339228 -7.16343
25210 -6.59751 2.69293 -7.77687
25157 -10.5995 14.2108 16.6547
25216 -5.60243 26.2837 0.209139
25140 -12.4083 15.2472 19.25
25127 -10.961 14.8992 22.374
25107 -5.67261 48.4373 -54.5694
25106 -5.97498 47.4064 -51.3573
25218 -6.27223 45.0976 -53.7429
25122 -13.0232 57.6004 -3.74839
25280 12.1477 -55.3878 4.85205
25275 9.07852 -56.07 3.61503
25130 7.55559 -50.6691 35.3587
25159 8.08586 -49.6328 38.6567
25272 6.7328 -47.457 36.4175
25227 13.2279 -22.0648 -33.782
25139 13.1085 -20.9241 -5.28827
25177 8.37949 -8.16159 41.0293
25118 9.10655 -7.84587 44.5981