LAMMPS data file via create_A-model.py, version 13 Dec 2022

25088 atoms
2 atom types
24576 bonds
2 bond types
24064 angles
2 angle types
23552 dihedrals
2 dihedral types

-75.0 75.0 xlo xhi
-75.0 75.0 ylo yhi
-75.0 75.0 zlo zhi

Masses

1 28.0531
2 40.0637

Atoms # molecular

1 1 1 -1.9871423105276733 -59.858227074651104 -14.456507707771337 0 0 0
2 1 2 -1.8069218405858436 -58.87957225939252 -16.727985818961102 0 0 0
3 1 1 -4.786197330382095 -59.35880216871031 -17.37581386291248 0 0 0
4 1 2 -7.241304089016069 -58.995397013586 -17.709301228273326 0 0 0
5 1 1 -6.618934221073204 -56.13051058995495 -16.73760897750413 0 0 0
6 1 2 -6.2941819594061315 -53.80939992697141 -15.852192873030155 0 0 0
7 1 1 -8.964156557906989 -53.05264625431556 -17.22097197428218 0 0 0
8 1 2 -11.045085545264648 -52.79541292575412 -18.576880461494873 0 0 0
9 1 1 -12.863798169572192 -53.74803598804917 -16.257961322429324 0 0 0
10 1 2 -14.580382915609768 -53.11648968506615 -14.554015367962847 0 0 0
11 1 1 -12.97549457934462 -54.542440601522586 -12.323636004612027 0 0 0
12 1 2 -11.637971954588387 -56.651167687496795 -12.594258999485838 0 0 0
13 1 1 -13.218757475783114 -57.0976556326152 -15.222901810035488 0 0 0
14 1 2 -14.96733857721938 -57.747327309426595 -16.912403102089563 0 0 0
15 1 1 -16.78993303382145 -57.34816790343038 -14.443232423978252 0 0 0
16 1 2 -18.189381070308677 -56.98063294975456 -12.38100567288334 0 0 0
17 1 1 -18.171673035640495 -53.87496017914665 -12.218826692167575 0 0 0
18 1 2 -18.47556227172815 -51.389633772139426 -12.276730370533677 0 0 0
19 1 1 -19.214089290331472 -51.572065719817665 -15.277286569927973 0 0 0
20 1 2 -19.559014514118914 -51.571753651551305 -17.76885028006877 0 0 0
21 1 1 -20.892135636191234 -48.77577336159871 -17.719203259245027 0 0 0
22 1 2 -22.001700336086593 -46.54019591407295 -17.90935942312214 0 0 0
23 1 1 -19.64356717147961 -46.047644465616585 -19.88187485815518 0 0 0
24 1 2 -17.751062587198163 -45.534780741659105 -21.415876550604928 0 0 0
25 1 1 -17.705283511479664 -42.43161083245829 -21.10876446234137 0 0 0
26 1 2 -17.5534921230811 -39.99033618705517 -20.649382703182 0 0 0
27 1 1 -15.916233378629798 -40.54903652985152 -18.066705575091106 0 0 0
28 1 2 -14.97979054918482 -40.23831956794405 -15.762661618149082 0 0 0
29 1 1 -17.196236958330402 -42.28007264969699 -15.02145333828144 0 0 0
30 1 2 -15.981510841269888 -43.26293751915698 -13.064119592874746 0 0 0
31 1 1 -14.684192331900213 -40.90664933538145 -11.521912290383234 0 0 0
32 1 2 -13.658101845937999 -38.99592542880403 -10.265186363439895 0 0 0
33 1 1 -14.214996455358651 -36.73430476289346 -12.28765599331269 0 0 0
34 1 2 -14.581501406569927 -34.881424083419226 -13.930303279961628 0 0 0
35 1 1 -11.821408006771875 -35.59780458066827 -15.092830134851418 0 0 0
36 1 2 -9.889614149108624 -35.24506171685522 -16.655065667373016 0 0 0
37 1 1 -11.282265194518608 -37.05564168890048 -18.73750528395737 0 0 0
38 1 2 -11.797504763490316 -35.637788973671 -20.71364067922969 0 0 0
39 1 1 -13.671475281144374 -37.917196862491764 -21.664319112207394 0 0 0
40 1 2 -11.58143035813194 -39.122657791401735 -22.278403359756446 0 0 0
41 1 1 -13.094991230683952 -41.50259393953925 -20.943406517755392 0 0 0
42 1 2 -12.683129468284072 -40.52481893831515 -18.68722287121173 0 0 0
43 1 1 -12.54123122752253 -42.869459663471275 -16.655462355958917 0 0 0
44 1 2 -12.612311160652887 -41.079158353096474 -14.901090219548827 0 0 0
45 1 1 -9.756077396074389 -40.60002520909298 -16.066555738981982 0 0 0
46 1 2 -7.464914480367028 -40.21433486575727 -17.01523329565537 0 0 0
47 1 1 -6.876706680285167 -43.07296760703582 -15.949829711990688 0 0 0
48 1 2 -5.773778211418957 -41.27824573279448 -17.27248276255831 0 0 0
49 1 1 -5.075619285895812 -39.763790914952835 -14.655811890814647 0 0 0
50 2 1 -40.65697734795872 24.521294942133608 21.68185032242745 0 0 0
51 2 2 -38.420017392048194 25.323133036275152 22.49443054435187 0 0 0
52 2 1 -39.688897119526935 25.991020413597283 25.221462696237722 0 0 0
53 2 2 -40.774015112714594 26.5718659820282 27.40137162777644 0 0 0
54 2 1 -42.14977066580249 29.035792241055645 26.077924892488014 0 0 0
55 2 2 -43.3400961416357 30.92657949486322 24.960168151787244 0 0 0
56 2 1 -43.06778621243663 29.349378859575765 22.308015224463176 0 0 0
57 2 2 -41.88702486158444 30.565238696568017 20.472893971836072 0 0 0
58 2 1 -39.322212760031746 28.92224075711519 21.111549435538265 0 0 0
59 2 2 -37.35573871829091 30.27467506524613 21.86302439142844 0 0 0
60 2 1 -37.13055085637327 31.189142156096537 18.900863294796522 0 0 0
61 2 2 -36.9532158432161 31.883558654018614 16.493948532516583 0 0 0
62 2 1 -34.69509814240754 33.98925271418305 16.674100904967844 0 0 0
63 2 2 -32.89523893552597 35.68973850069084 16.929445294247614 0 0 0
64 2 1 -34.00193643605302 37.27056076539638 14.490403659746306 0 0 0
65 2 2 -34.51021374025255 38.9107691871437 12.677845528422537 0 0 0
66 2 1 -37.44814493041177 39.2584808129875 13.603683240439523 0 0 0
67 2 2 -39.65391143367165 39.54979539010661 14.698413259998034 0 0 0
68 2 1 -40.84959965691573 37.7989273518473 12.445121397819605 0 0 0
69 2 2 -43.11098243121869 36.85727577680507 12.881235405374042 0 0 0
70 2 1 -41.98667426688525 34.14568828598243 11.828863814434612 0 0 0
71 2 2 -43.99868088255424 34.472475673320986 13.249266403081833 0 0 0
72 2 1 -43.154379933320435 32.344129481736786 15.335678120535547 0 0 0
73 2 2 -44.26389124688701 33.744734105835704 17.097251060289466 0 0 0
74 2 1 -46.07811453860184 31.47366065485049 18.182957048220487 0 0 0
75 2 2 -44.08754071802553 30.813283845978248 19.55348555973667 0 0 0
76 2 1 -45.517820692827755 28.42306707185574 20.95974571854036 0 0 0
77 2 2 -47.353129931275944 29.813977871800418 20.02068064211082 0 0 0
78 2 1 -49.017813243953185 27.621024304345227 21.459613787257723 0 0 0
79 2 2 -49.65750849637001 26.50919959885161 19.313900703291367 0 0 0
80 2 1 -51.31230489268677 27.392487970782312 16.85469531577361 0 0 0
81 2 2 -52.5203585460268 28.23012978572993 14.851223974645322 0 0 0
82 2 1 -53.168874613431235 25.213370766928534 14.347307729083411 0 0 0
83 2 2 -53.89121914517064 27.597907540362883 14.522137947344817 0 0 0
84 2 1 -52.58081299907316 27.544044793728645 17.32100914202657 0 0 0
85 2 2 -51.57765279743205 27.857091889833328 19.573293591061372 0 0 0
86 2 1 -53.09338067093066 25.195105202729167 19.909165392984875 0 0 0
87 2 2 -50.604452721250844 25.235050154928174 20.1063642305606 0 0 0
88 2 1 -50.621409377495524 25.12576711304615 23.193805652535687 0 0 0
89 2 2 -50.907182429116716 25.109034434733445 25.676513125036877 0 0 0
90 2 1 -48.03336133175668 26.15832106541562 26.222256039935317 0 0 0
91 2 2 -45.684925544532966 26.977898546488078 26.610665409738175 0 0 0
92 2 1 -46.90593132482947 28.391282780978656 29.07622692837073 0 0 0
93 2 2 -47.79985091957374 29.66267148130693 31.029389664869825 0 0 0
94 2 1 -46.72026675039098 27.594362811700563 33.0826574033364 0 0 0
95 2 2 -44.634364814601895 27.076870013195446 31.80629263439458 0 0 0
96 2 1 -45.793146737788305 27.915054432601153 29.053465773748258 0 0 0
97 2 2 -46.7392774621876 28.60899300747721 26.850180707698073 0 0 0
98 2 1 -49.574480389008144 27.700387901053972 27.748445567577264 0 0 0
99 3 1 15.355007032204355 31.80674254902064 72.351112905615 0 0 0
100 3 2 12.873734738352852 32.12771395827323 72.4043213394923 0 0 0
101 3 1 12.277243202862124 29.079699332568424 72.28037724086082 0 0 0
102 3 2 11.942509972565489 31.48609110700228 72.88692987157117 0 0 0
103 3 1 8.938009081438722 31.299381804225206 72.15398789204085 0 0 0
104 3 2 6.485725828198014 30.85883388932453 71.83225254805058 0 0 0
105 3 1 5.458051438152339 32.45573141538837 74.27371793731547 0 0 0
106 3 2 4.614390258853604 33.736315054653986 -73.76288292442382 0 0 1
107 3 1 4.273552441224496 35.82121784023755 73.99047859777079 0 0 0
108 3 2 4.041759872451763 37.40692530895551 72.06515761100357 0 0 0
109 3 1 4.2362737413101 39.99332664291765 73.78288908590227 0 0 0
110 3 2 4.259569242922026 42.22453051376448 74.85533715703872 0 0 0
111 3 1 7.314008646840065 42.524399245682886 74.53753798560862 0 0 0
112 3 2 9.754075069932327 42.69421190892024 74.15280790211133 0 0 0
113 3 1 10.09825016230782 40.01881335331484 -74.31734729628164 0 0 1
114 3 2 10.86235558425544 42.1620511013288 -73.30244902369483 0 0 1
115 3 1 7.913646304951882 43.085404586160976 -72.993011687565 0 0 1
116 3 2 5.50688741377958 43.679034178222835 -72.66427498189483 0 0 1
117 3 1 6.121818983241795 42.8204074268651 -69.7484073014875 0 0 1
118 3 2 5.893794511602977 43.157443760442405 -67.27349205617884 0 0 1
119 3 1 3.9470955105956023 40.764414240054805 -67.08232297212933 0 0 1
120 3 2 2.351419001418492 42.680014472687546 -67.0721886966837 0 0 1
121 3 1 -0.09907077203988024 40.892933840600946 -67.67788037187918 0 0 1
122 3 2 -2.1481279782414333 42.355758406738175 -67.79841106283507 0 0 1
123 3 1 -0.90423096839028 45.189544245626706 -67.77168897466848 0 0 1
124 3 2 0.09689749152875038 47.474767560098925 -67.67285539294787 0 0 1
125 3 1 -1.0106866516191246 47.94049538582949 -70.54065701636026 0 0 1
126 3 2 -1.8436469389231291 48.35859681748326 -72.87747131429484 0 0 1
127 3 1 -3.9039535005990302 50.50950961989233 -72.00376433249497 0 0 1
128 3 2 -5.569448249222518 52.294796434300736 -71.45732715417606 0 0 1
129 3 1 -6.578508559338474 50.89265444412092 -68.87185338140077 0 0 1
130 3 2 -8.124028175728881 51.93101732704979 -67.20193337888148 0 0 1
131 3 1 -10.288882643740791 52.55110096586327 -69.34264480917935 0 0 1
132 3 2 -12.129766222855018 53.105764981479695 -70.95638737352323 0 0 1
133 3 1 -13.697443995651568 50.901893150131144 -69.44840648175824 0 0 1
134 3 2 -13.766462015701293 49.3425859994215 -71.42496748356393 0 0 1
135 3 1 -12.81249606471146 47.46366281529082 -73.67939563022182 0 0 1
136 3 2 -12.507515069463437 48.91051418656522 74.28959591331437 0 0 0
137 3 1 -15.426433702454794 48.6164569476942 73.26893830950152 0 0 0
138 3 2 -17.596265840448524 48.55033110164169 72.03506442352926 0 0 0
139 3 1 -16.895216847930016 45.77589316618176 70.86741325192281 0 0 0
140 3 2 -17.38284816975697 47.97542083285843 69.7878167208687 0 0 0
141 3 1 -19.59838375883661 46.342500689795386 68.34313980665675 0 0 0
142 3 2 -21.51961627974878 47.625839717106714 67.38009525752375 0 0 0
143 3 1 -20.921612081206725 46.11199635143973 64.75197779966916 0 0 0
144 3 2 -18.58464349179785 46.37907735065983 63.95388233910836 0 0 0
145 3 1 -19.730123380305017 49.22441861555615 64.36659526146892 0 0 0
146 3 2 -20.894570686799582 51.42563070312197 64.70883073618316 0 0 0
147 3 1 -23.49482509926785 50.4708061837931 63.29686663611264 0 0 0
148 4 1 23.839264995600317 -0.9208957331787389 -43.82308314917557 0 0 0
149 4 2 24.37742751127547 -0.9056856609157222 -46.25721100403898 0 0 0
150 4 1 23.757059948526134 -3.9215929042957782 -46.731774308264036 0 0 0
151 4 2 23.435134945127757 -1.5094932317081629 -47.33751912265173 0 0 0
152 4 1 20.659961402332286 -1.9248508306059051 -48.64412645075081 0 0 0
153 4 2 18.195427851018152 -2.3380954506526876 -48.82417800781056 0 0 0
154 4 1 18.327397094950484 -3.8328826392340716 -46.10200691599202 0 0 0
155 4 2 16.912673614253094 -2.924864997594625 -44.22475997997918 0 0 0
156 4 1 16.60041220854052 -0.06439156278779024 -45.365472794808966 0 0 0
157 4 2 16.437318791652302 2.2910843299840877 -46.18484367322602 0 0 0
158 4 1 15.415993460762863 1.645615863198131 -49.0462046845542 0 0 0
159 4 2 15.417708766639052 1.6962477963919582 -51.52822201473308 0 0 0
160 4 1 17.111150784574733 -0.8974265908133674 -51.46786439553309 0 0 0
161 4 2 18.179856501330477 0.9410349329046142 -52.78279647358903 0 0 0
162 4 1 15.981970330650427 2.9359157789265 -51.87276812489435 0 0 0
163 4 2 14.406900633359626 4.637003847843459 -50.94693239779807 0 0 0
164 4 1 13.780025128735701 2.7698837094766446 -48.562039526899916 0 0 0
165 4 2 11.486095421464725 3.7372666468676528 -48.18791368760694 0 0 0
166 4 1 12.73007735751139 6.514959735521984 -48.77320032873624 0 0 0
167 4 2 13.826642644432425 8.72464751653142 -49.17634086308206 0 0 0
168 4 1 11.117563883967875 10.20739073856383 -49.334804448641435 0 0 0
169 4 2 8.829421032346858 11.197750200530209 -49.57222430291337 0 0 0
170 4 1 7.465884364828355 9.514679463192238 -47.34446891319798 0 0 0
171 4 2 5.028325822551011 9.947468183708992 -47.108601270663044 0 0 0
172 4 1 4.431688335688733 7.454585956193114 -48.84294921909293 0 0 0
173 4 2 6.809334468904865 7.854247255920768 -49.52701103368361 0 0 0
174 4 1 6.111492608065149 7.594098216934427 -52.5472879734595 0 0 0
175 4 2 5.516272429377324 6.991306287303956 -54.90309131261022 0 0 0
176 4 1 4.271643512436668 4.163112682917074 -54.93897845487452 0 0 0
177 4 2 5.158866322523878 5.629729961470659 -56.73818633044969 0 0 0
178 4 1 2.4356906627802033 5.387516225554819 -58.20498300282346 0 0 0
179 4 2 0.5747165339518716 4.993237280816402 -59.831222006391116 0 0 0
180 4 1 1.2404878871169842 7.238588972583415 -61.87889518586242 0 0 0
181 4 2 1.7330770292673492 9.172513620293302 -63.397214907925644 0 0 0
182 4 1 -0.5646033191999749 8.554374146089813 -65.40853686625587 0 0 0
183 4 2 -1.626582994087741 7.923583798902385 -67.59721495736125 0 0 0
184 4 1 -0.1706703630992905 9.613719808391892 -69.76559928244757 0 0 0
185 4 2 1.2395127434181177 10.813439396892406 -71.43872862588671 0 0 0
186 4 1 -0.4189685572071937 13.403064611484453 -71.10323684169457 0 0 0
187 4 2 -1.9311849781307018 15.374397500446037 -70.80942026519081 0 0 0
188 4 1 -0.8201875261909493 16.69431857859921 -73.3862384364098 0 0 0
189 4 2 0.08723552336032014 17.723930017854016 74.54410614334475 0 0 -1
190 4 1 -0.4954241405569917 20.553881507314912 -74.31508173314816 0 0 0
191 4 2 -1.0236098417424557 22.77012032381765 -73.28944242454608 0 0 0
192 4 1 -3.696429882950511 21.61059078101414 -72.26257141313222 0 0 0
193 4 2 -6.075229497480294 21.69956778304173 -73.06251986070194 0 0 0
194 4 1 -5.281600651275156 21.369227443197033 73.96766237443634 0 0 -1
195 4 2 -4.622676510694831 21.63912895965923 71.54903610914312 0 0 -1
196 4 1 -6.8160871550309565 23.82779632773422 71.32079054883573 0 0 -1
197 5 1 -56.89528449053391 -44.86511507481183 47.247065997693596 0 0 0
198 5 2 -54.73892592312433 -46.06412182115389 46.850792856668505 0 0 0
199 5 1 -52.886279720794434 -43.932927531113904 48.10954237230074 0 0 0
200 5 2 -51.393523202305715 -42.209151782071814 49.151810053272044 0 0 0
201 5 1 -49.0130780637703 -43.06436018643159 47.34741272514971 0 0 0
202 5 2 -47.207027914936305 -44.73658581647465 46.844122565328405 0 0 0
203 5 1 -48.033462112298594 -45.64099787145193 49.69159983691216 0 0 0
204 5 2 -49.12909940743006 -45.038715436925415 51.84498193243196 0 0 0
205 5 1 -50.631994513140455 -43.34843133982342 49.73751549272431 0 0 0
206 5 2 -51.848430334487844 -41.989312340133615 48.024145077774534 0 0 0
207 5 1 -53.00577688417707 -40.30625445981625 50.33035554077814 0 0 0
208 5 2 -54.06353661181515 -38.78547521529573 52.027464160699935 0 0 0
209 5 1 -51.92313513639011 -36.52926588629988 52.00508855278822 0 0 0
210 5 2 -50.16321050885303 -34.73081977021403 51.992756616287394 0 0 0
211 5 1 -49.42936812470302 -35.32792996612546 54.94911287093575 0 0 0
212 5 2 -49.811476039529126 -36.80213323632638 56.925277467472284 0 0 0
213 5 1 -48.59247520602429 -38.42895236560752 59.273484503993814 0 0 0
214 5 2 -47.5895045202132 -37.301332049947554 61.26505610278838 0 0 0
215 5 1 -45.19126000036454 -36.1793678671406 59.643298203248236 0 0 0
216 5 2 -43.348589823615754 -35.08281596006 58.380411806393425 0 0 0
217 5 1 -42.37375477657152 -37.84109364234548 57.354939355649265 0 0 0
218 5 2 -44.666959565450284 -36.92894193135925 57.089667519345085 0 0 0
219 5 1 -45.07148521896953 -39.73399488087646 55.853491080181044 0 0 0
220 5 2 -46.671275509399365 -38.79012710905497 57.51754229506682 0 0 0
221 5 1 -44.382922689405504 -37.05969775983397 58.676396159808945 0 0 0
222 5 2 -42.52359850019067 -35.708360500871485 59.65265067618489 0 0 0
223 5 1 -44.1453977515513 -35.45561077074455 62.294911891696756 0 0 0
224 5 2 -45.53157097918056 -35.20689024017594 64.36237221059312 0 0 0
225 5 1 -42.97274081975801 -33.76178530459791 65.38320356056127 0 0 0
226 5 2 -40.70392237555409 -32.91203735539413 66.04006575846435 0 0 0
227 5 1 -39.83711673687359 -32.88892383604549 63.06776510685336 0 0 0
228 5 2 -39.222132265753515 -32.73079705915601 60.64416570649723 0 0 0
229 5 1 -38.279503109270365 -29.782737722930847 61.038646918984455 0 0 0
230 5 2 -37.51709835294976 -27.404655686640666 61.24420669276188 0 0 0
231 5 1 -37.85744555348387 -26.92168418293953 64.29073631639366 0 0 0
232 5 2 -38.04263842072199 -26.461382306723202 66.72911608557405 0 0 0
233 5 1 -40.95869546030706 -27.48781021235518 66.9659635473358 0 0 0
234 5 2 -42.622032788656995 -28.903098407860085 65.7336781863593 0 0 0
235 5 1 -42.74951988587642 -27.941841621499634 62.80785152133063 0 0 0
236 5 2 -42.774787440089185 -26.9319874488751 60.51878555312874 0 0 0
237 5 1 -39.68849799341295 -26.736695759414616 60.68947901451892 0 0 0
238 5 2 -37.20508438581336 -26.53618884400361 60.69283554322598 0 0 0
239 5 1 -37.42073623029535 -24.844428570950818 63.26991367179329 0 0 0
240 5 2 -37.78218368191147 -23.50702498104016 65.36479252366055 0 0 0
241 5 1 -35.56411041658282 -21.475310894702346 64.68123562277 0 0 0
242 5 2 -34.16948155691094 -19.49573239696909 64.05151099040108 0 0 0
243 5 1 -35.76917545744714 -17.416125795759335 65.7060493829976 0 0 0
244 5 2 -36.74778290230722 -15.638292037017088 67.16384656566802 0 0 0
245 5 1 -37.46319680669491 -13.90234836823047 64.68239547250943 0 0 0
246 6 1 -5.575139632372085 7.173676940700545 67.60896444216647 0 0 0
247 6 2 -7.355238802283026 6.956989033360415 65.85935035599562 0 0 0
248 6 1 -9.914661455539076 6.347492678803832 67.51850952551601 0 0 0
249 6 2 -11.331236885405936 6.0892476755588945 69.54379388726838 0 0 0
250 6 1 -10.820175211716972 9.132209229401113 69.95296324473256 0 0 0
251 6 2 -10.386396595962282 11.579014919171982 70.3053451808716 0 0 0
252 6 1 -12.371839266200972 11.675456475320715 72.68028387839871 0 0 0
253 6 2 -13.794709208737778 11.800500418645655 74.7335516475325 0 0 0
254 6 1 -11.31417169679436 12.888610848924714 -73.7666166855565 0 0 1
255 6 2 -9.312827694836557 13.752192341831929 -72.55048643941055 0 0 1
256 6 1 -8.87964422031932 11.173112514924668 -70.83345814283189 0 0 1
257 6 2 -9.37008169883265 10.76119155912346 -73.24241110492434 0 0 1
258 6 1 -12.256704701590706 11.091712273904989 -72.17459650824728 0 0 1
259 6 2 -14.560837203018593 10.983879198825548 -71.18857815265665 0 0 1
260 6 1 -14.431272932717384 14.067932871575366 -70.93143929197731 0 0 1
261 6 2 -14.379556931253603 16.550664534380516 -70.65947841020949 0 0 1
262 6 1 -17.18882536456465 16.933738410853096 -69.41204265800621 0 0 1
263 6 2 -19.446611330089013 17.386788774966888 -68.41268814001495 0 0 1
264 6 1 -18.82373245093258 15.00517748464955 -66.52187213731403 0 0 1
265 6 2 -20.141809044407232 16.194843620361183 -64.78115466853015 0 0 1
266 6 1 -18.467876517916338 15.155365970703187 -62.358566520044064 0 0 1
267 6 2 -16.092663705160447 14.885339762857924 -61.653167066562446 0 0 1
268 6 1 -15.517398234099566 12.677705796060252 -63.75857710723369 0 0 1
269 6 2 -16.92925704012348 11.073885604382312 -62.44426349933656 0 0 1
270 6 1 -19.959756624623857 11.598746269201342 -61.97981615616766 0 0 1
271 6 2 -22.381253195701362 11.99567841268572 -61.533568365064156 0 0 1
272 6 1 -22.17347956554827 15.074278709106778 -61.89975010705135 0 0 1
273 6 2 -22.010388840593045 17.544968122558572 -62.19549661630862 0 0 1
274 6 1 -23.696496352400253 17.8575354624612 -59.619329191250756 0 0 1
275 6 2 -25.074017064613365 18.01427029049063 -57.543934240753146 0 0 1
276 6 1 -22.309992874014654 17.0931408887851 -56.51183487556145 0 0 1
277 6 2 -19.88687421159878 17.65073327390658 -56.37197845489726 0 0 1
278 6 1 -20.54898205942977 18.730916760977976 -53.55725838608862 0 0 1
279 6 2 -20.986089479009074 19.638688888502273 -51.280020727549214 0 0 1
280 6 1 -23.027021764942866 21.47547690816323 -52.75669632920284 0 0 1
281 6 2 -24.63078437656511 22.933276617848648 -53.96335718129441 0 0 1
282 6 1 -22.359486434292258 24.29549037072202 -55.56239625350773 0 0 1
283 6 2 -20.438610169688538 25.45817153149106 -56.638180303323736 0 0 1
284 6 1 -22.377231105024393 27.847604437291068 -56.997229441231894 0 0 1
285 6 2 -23.9164327794661 29.80154715816255 -57.307656373346475 0 0 1
286 6 1 -22.21829036750674 30.709122122333582 -59.71694373029851 0 0 1
287 6 2 -20.90266768368806 31.388773335777316 -61.71962698539835 0 0 1
288 6 1 -22.725612058399484 33.72251020523534 -62.67101597632316 0 0 1
289 6 2 -24.032673133621877 35.53986247727158 -63.781744001426034 0 0 1
290 6 1 -23.58123395937811 34.03246755459129 -66.46797650441223 0 0 1
291 6 2 -22.48541289848407 35.03431560194214 -68.49602434395501 0 0 1
292 6 1 -21.69755598185165 37.28080561494126 -66.53061645994958 0 0 1
293 6 2 -21.43990125223044 39.19064032677184 -64.93766828209024 0 0 1
294 6 1 -22.09496634784992 36.956048989489034 -62.88189175331948 0 0 1
295 7 1 38.64765767006128 72.10762174382418 -15.230930057545386 0 0 0
296 7 2 39.26630135278921 70.2856881037984 -13.641736463483895 0 0 0
297 7 1 39.7581629891332 67.26273366136041 -13.08439044232636 0 0 0
298 7 2 39.36624335956759 69.054662759611 -14.763450106544646 0 0 0
299 7 1 39.944819130366 67.19670408499093 -17.171580780490473 0 0 0
300 7 2 37.83908030658472 65.87013442509965 -17.40174990432206 0 0 0
301 7 1 38.87278193254116 63.9646007089581 -19.605926714148822 0 0 0
302 7 2 37.37624943353879 63.91298665264998 -21.617594449409758 0 0 0
303 7 1 39.97973278545864 64.18788582085043 -23.27916228957345 0 0 0
304 7 2 42.19041401201872 64.41743918640114 -24.432271154794265 0 0 0
305 7 1 41.15922796434245 67.32821160881957 -24.77956594486554 0 0 0
306 7 2 40.240521361508456 69.6220544120909 -25.15524645411211 0 0 0
307 7 1 42.89548340937388 70.50831062885064 -23.844091050137905 0 0 0
308 7 2 45.07277581295732 71.24216294217078 -22.817909534678293 0 0 0
309 7 1 44.251790306916135 70.69618034776695 -19.870536492283605 0 0 0
310 7 2 43.44238165714776 71.17340664912294 -17.558539397823935 0 0 0
311 7 1 42.52281298682689 68.22983350440765 -17.13721358158253 0 0 0
312 7 2 43.33430385093207 70.26808045313874 -15.93557154457963 0 0 0
313 7 1 46.013685138097514 70.07345022227571 -17.49157773187887 0 0 0
314 7 2 48.15035944411257 70.27543702672625 -18.767945783475895 0 0 0
315 7 1 48.83865973915661 73.09317102326764 -17.708098022450365 0 0 0
316 7 2 49.21280569487969 -74.70204070900306 -16.578988833502187 0 1 0
317 7 1 49.21397578933082 -73.1976031706609 -19.291514881363263 0 1 0
318 7 2 48.94401747946203 -71.84198826284734 -21.385661833327802 0 1 0
319 7 1 51.966369230930326 -71.92079123512346 -22.02625123452983 0 1 0
320 7 2 54.40788815089422 -71.8700341650285 -22.481115475566355 0 1 0
321 7 1 54.210767371793736 -68.83261406172477 -21.87902241610368 0 1 0
322 7 2 53.82981159395317 -66.35131572564615 -21.712011796278013 0 1 0
323 7 1 56.82883909619528 -65.72584928319802 -22.31080937652628 0 1 0
324 7 2 59.248483514307935 -65.39795422649757 -22.81395532251218 0 1 0
325 7 1 59.13781336647193 -62.31317441989415 -22.81176219990172 0 1 0
326 7 2 58.7625377949019 -59.869177191446255 -22.50856475505808 0 1 0
327 7 1 61.43221723059594 -59.68350515859865 -20.96588906768391 0 1 0
328 7 2 63.522580841180826 -59.99087066294712 -19.622491569511453 0 1 0
329 7 1 64.46978434041458 -57.24252211708102 -20.654321543264373 0 1 0
330 7 2 65.31854035882327 -54.9809410927798 -21.253648556064398 0 1 0
331 7 1 65.70917788939846 -54.49700245338016 -18.236296354265505 0 1 0
332 7 2 66.02944858640731 -54.028644520476234 -15.801271417585525 0 1 0
333 7 1 63.09875566056701 -53.03137686607499 -16.01444966978807 0 1 0
334 7 2 60.79505238961414 -52.09337742700572 -16.16105081041573 0 1 0
335 7 1 62.08167553204626 -49.31769715062322 -16.71262364973112 0 1 0
336 7 2 63.06282394302215 -47.024253841105065 -16.689082710755486 0 1 0
337 7 1 65.10556644564645 -47.667116751087036 -18.929785162508452 0 1 0
338 7 2 65.91642007048333 -47.86040946898936 -21.29373203062488 0 1 0
339 7 1 64.32448944885567 -50.44101219598301 -21.944056009583193 0 1 0
340 7 2 65.04869329263471 -49.338645715887395 -24.045471471609382 0 1 0
341 7 1 67.30631390344502 -47.61585054911288 -22.810141403819415 0 1 0
342 7 2 69.12237753098793 -46.23231969004763 -21.83443928113965 0 1 0
343 7 1 68.73680499009666 -44.05202486002358 -24.010753358009957 0 1 0
344 8 1 -47.63636366180023 -10.360367281897126 -63.06742769992907 0 0 0
345 8 2 -46.8937434655716 -10.10121217364977 -60.69039998442147 0 0 0
346 8 1 -49.784628224647435 -11.002675615296852 -60.035027039816114 0 0 0
347 8 2 -52.15700964309558 -10.292071764517658 -59.704573311381175 0 0 0
348 8 1 -51.793688753788075 -8.604152571155538 -62.30515999923763 0 0 0
349 8 2 -51.27696222010566 -7.414397997989795 -64.43098716106684 0 0 0
350 8 1 -48.72707036740883 -5.9843036406699355 -63.440132568978115 0 0 0
351 8 2 -46.62163053520895 -4.92164033044989 -62.657979782628544 0 0 0
352 8 1 -45.516967795586766 -7.652460045987212 -61.70003119932024 0 0 0
353 8 2 -47.778192106955046 -7.279592144463194 -62.71577265050509 0 0 0
354 8 1 -48.8919581991251 -5.0714255196757705 -60.82408799102068 0 0 0
355 8 2 -49.92412813441861 -3.4011275240801666 -59.261423086086026 0 0 0
356 8 1 -51.04378069972593 -1.6338762744551332 -61.569772638681286 0 0 0
357 8 2 -51.90938580520715 0.026345817727502663 -63.215487824037226 0 0 0
358 8 1 -51.2809429170583 -1.968136184531346 -65.4960923655795 0 0 0
359 8 2 -53.07760057332799 -1.0181182066709482 -66.95478455510901 0 0 0
360 8 1 -51.23767349782766 0.7501480372857827 -68.7162696506393 0 0 0
361 8 2 -49.57897822362452 2.369917594399567 -69.65772085667612 0 0 0
362 8 1 -47.557950045623 2.037774723870143 -67.35788210655149 0 0 0
363 8 2 -45.574960128528055 2.0615497524788253 -65.80016447913665 0 0 0
364 8 1 -44.575503301650784 2.937566643852861 -68.61994510286388 0 0 0
365 8 2 -43.979332300569325 3.7082391727275876 -70.92706001702204 0 0 0
366 8 1 -41.17667798422091 2.5352262913110906 -70.3751902936187 0 0 0
367 8 2 -39.521745172753036 2.6707602570979674 -68.50069898670272 0 0 0
368 8 1 -39.98844781571056 -0.3597289331214739 -68.06684742685144 0 0 0
369 8 2 -39.76957478693895 1.8006373064472427 -69.29598352662836 0 0 0
370 8 1 -42.19844956434837 3.04245298176302 -67.82675004826385 0 0 0
371 8 2 -44.09753131897132 3.9516440442822045 -66.48417259084997 0 0 0
372 8 1 -46.42905033471321 3.517805047900879 -68.49243110055656 0 0 0
373 8 2 -48.71376995450584 3.4262415884701767 -69.51150565155072 0 0 0
374 8 1 -49.37729547496453 4.124744464978448 -66.58468525771195 0 0 0
375 8 2 -49.80092101120922 4.6561585183766 -64.19478452952652 0 0 0
376 8 1 -46.698777937785394 5.03607773035489 -64.08548383742034 0 0 0
377 8 2 -44.23174605760778 5.32796148124676 -64.00213954784569 0 0 0
378 8 1 -44.35502902122396 5.625020277570471 -67.08808309504164 0 0 0
379 8 2 -44.3459315320425 5.872418241015438 -69.5834545339236 0 0 0
380 8 1 -45.61193522049574 3.0499111711594082 -69.57781703131397 0 0 0
381 8 2 -46.579116658306134 5.298006444107045 -69.10001439714742 0 0 0
382 8 1 -49.524972051190645 4.659743478825618 -69.87178413882577 0 0 0
383 8 2 -51.81894426284293 5.14750790693391 -70.73163425976333 0 0 0
384 8 1 -50.558097471157296 7.759272280806286 -71.80531702137486 0 0 0
385 8 2 -49.66121870463569 9.926723131155384 -72.66612173329429 0 0 0
386 8 1 -46.639893246039236 9.594488299634378 -72.02720443011205 0 0 0
387 8 2 -44.39495772751527 8.963380338103292 -71.12959165988045 0 0 0
388 8 1 -43.19259268687212 10.651361175857787 -73.44381245343979 0 0 0
389 8 2 -42.07086570369129 12.1327720144143 74.87638198438484 0 0 -1
390 8 1 -39.27680676800604 11.111313039065749 -74.24108466908952 0 0 0
391 8 2 -38.1020429167267 9.062202277860322 -73.46265593021093 0 0 0
392 8 1 -36.11968315662209 9.394559651126343 -71.09941138372172 0 0 0
393 9 1 -69.58633745305657 -59.83638293407163 53.27132070148201 0 0 0
394 9 2 -67.37012443228924 -59.47703660521549 52.160187543936075 0 0 0
395 9 1 -67.84545989177307 -56.420987437105836 52.58709103329795 0 0 0
396 9 2 -67.95690550119816 -53.93906879696081 52.82937546474311 0 0 0
397 9 1 -70.37236172160063 -53.332986475464 50.985214072949674 0 0 0
398 9 2 -72.34876433453395 -52.738007467910236 49.56794627291812 0 0 0
399 9 1 -74.07504334036761 -55.025357220598224 50.77848084368526 0 0 0
400 9 2 -72.34491388611767 -54.959535958948585 52.561860184999375 0 0 0
401 9 1 -71.25460573727341 -52.24471316655362 51.47754697378397 0 0 0
402 9 2 -70.51580183957076 -49.97092612357447 50.74211046923904 0 0 0
403 9 1 -68.49562184583395 -49.92589679605538 53.105918107085955 0 0 0
404 9 2 -66.83077746393661 -49.851229207339046 54.95439171362537 0 0 0
405 9 1 -64.8800025701951 -48.30972983486465 53.11815355562672 0 0 0
406 9 2 -63.438691556240315 -46.795353667347854 51.75151627582231 0 0 0
407 9 1 -65.7761665537004 -44.777078237947805 51.9686699139085 0 0 0
408 9 2 -67.54318666988551 -43.007779853961495 51.93370099826002 0 0 0
409 9 1 -66.44242898487832 -40.85452745798379 53.884440607271074 0 0 0
410 9 2 -65.45174804548581 -39.38841497500638 55.65334907739009 0 0 0
411 9 1 -65.11075159525595 -37.23222658119282 53.46280783649365 0 0 0
412 9 2 -64.57871457264459 -35.48460977170709 51.761524608881075 0 0 0
413 9 1 -65.33316509617805 -37.2439524205912 49.31307222033146 0 0 0
414 9 2 -65.77930372319608 -39.6017064124773 50.04819513452621 0 0 0
415 9 1 -64.79886540458341 -41.006059725214165 52.63465286010772 0 0 0
416 9 2 -65.78555673245796 -40.599065503242244 54.889169372755646 0 0 0
417 9 1 -67.80816642373878 -42.83397491201384 54.213598693191784 0 0 0
418 9 2 -65.9056356970612 -44.00010191876166 53.11119798467723 0 0 0
419 9 1 -67.84334778645136 -46.172239872794535 54.15340524305117 0 0 0
420 9 2 -65.87229629302756 -47.51339398188691 54.88289721828784 0 0 0
421 9 1 -65.11866359211142 -46.06604369176719 57.493277311849965 0 0 0
422 9 2 -64.4162345082064 -44.755077686069555 59.4951545105437 0 0 0