LAMMPS data file via create_straight_chains.py, version 14 Dec 2022

12288 atoms
1 atom types
11776 bonds
1 bond types
11264 angles
1 angle types
10752 dihedrals
1 dihedral types

-75.0 75.0 xlo xhi
-75.0 75.0 ylo yhi
-75.0 75.0 zlo zhi

Masses

1 68.117

Atoms # molecular

1 1 1 -59.707276672436564 65.83883018852111 22.986430877664333 0 0 0
2 1 1 -58.901322436071055 61.53929882091941 20.55700956626991 0 0 0
3 1 1 -61.19567441415385 65.0585657758077 23.27905152392779 0 0 0
4 1 1 -65.56607881877959 64.79604834634173 25.701086337824265 0 0 0
5 1 1 -69.28816239061639 62.911740214349464 22.947671672817435 0 0 0
6 1 1 -70.52127812332482 66.76467723011572 20.002569189301127 0 0 0
7 1 1 -73.13278241052976 70.47130497571499 22.10977550405657 0 0 0
8 1 1 73.52609146580502 73.32972514906314 19.759119503832395 -1 0 0
9 1 1 69.19437923190299 71.41852712365426 18.12088209685389 -1 0 0
10 1 1 65.88599340936003 71.18990782365907 21.840098485183717 -1 0 0
11 1 1 65.17273306200872 66.79799210976915 24.112099067832432 -1 0 0
12 1 1 60.805642648755764 66.47227822668015 26.517433237212998 -1 0 0
13 1 1 58.55706575115573 70.62949058656613 28.10617573897939 -1 0 0
14 1 1 58.65988101217903 74.98851969700138 25.647279833089797 -1 0 0
15 1 1 63.31645547481486 -73.16418626842409 25.966809643809825 -1 1 0
16 1 1 64.52593753732219 -69.56193239811489 22.691631604529775 -1 1 0
17 1 1 65.63500420861772 -69.95618974300095 17.842612250810134 -1 1 0
18 1 1 65.98624770849727 -65.87927731550249 14.959086712393457 -1 1 0
19 1 1 62.953579583259256 -61.91207387124106 15.011336219204551 -1 1 0
20 1 1 65.00879765475636 -57.357223861970766 14.887395969589036 -1 1 0
21 1 1 62.54173416867687 -54.05548487053173 12.082560514895931 -1 1 0
22 1 1 63.02474589414328 -55.29180150039548 7.269248655310889 -1 1 0
23 1 1 64.1616453510448 -50.537772692873716 6.254623773483573 -1 1 0
24 1 1 67.00969924435327 -48.13976751689009 9.605845501105293 -1 1 0
25 2 1 69.8819619988395 -24.35924253312664 -35.43739084949063 0 0 0
26 2 1 66.74295715006252 -20.68168570174155 -36.76127118518087 0 0 0
27 2 1 62.34635724183286 -21.278958703035464 -39.05310208224711 0 0 0
28 2 1 61.37394108636795 -18.4564473974568 -43.072375867948935 0 0 0
29 2 1 57.934388231255156 -14.825101231024831 -43.00758755640385 0 0 0
30 2 1 57.50537670580172 -11.803258505656522 -39.03936239551538 0 0 0
31 2 1 56.22712918826994 -6.993525565413776 -39.388245289952465 0 0 0
32 2 1 52.303668271076305 -5.210105392225984 -36.87819303931358 0 0 0
33 2 1 51.217930879962125 -0.3471610836310077 -36.85156452327108 0 0 0
34 2 1 54.544779303227955 2.71841947901099 -34.723442025501804 0 0 0
35 2 1 53.318375778221736 6.134795601847998 -31.268689263724845 0 0 0
36 2 1 52.54975456444794 4.3896984366664356 -26.635230846377695 0 0 0
37 2 1 48.79766341253571 1.4339750176489048 -28.122004795575442 0 0 0
38 2 1 47.640517337384495 4.8964732962305675 -31.544587791777452 0 0 0
39 2 1 42.880117377731295 5.800177798848296 -32.83201956117169 0 0 0
40 2 1 41.91563241739223 9.834131726182534 -35.6308968119343 0 0 0
41 2 1 45.02066185613684 13.69468528052353 -36.260661707796494 0 0 0
42 2 1 45.24764889147605 16.849512403448372 -40.14851932358253 0 0 0
43 2 1 47.57965555894033 21.24733571037646 -39.95377826880866 0 0 0
44 2 1 46.76994197599885 23.542986246592136 -35.5860042813829 0 0 0
45 2 1 48.49196175132731 23.61407793194043 -30.907082157594076 0 0 0
46 2 1 53.056443425851626 22.383382342412148 -29.256453069745355 0 0 0
47 2 1 54.96666562472399 25.747400591319277 -26.073989348911574 0 0 0
48 2 1 59.60695103222753 24.86216209171745 -24.45130198338918 0 0 0
49 3 1 59.91829952953853 -62.07789554893683 -13.620924745701366 0 0 0
50 3 1 60.27580551441929 -61.77660766174455 -8.65180973681727 0 0 0
51 3 1 62.9277553214726 -65.1424776452775 -6.086944513797846 0 0 0
52 3 1 60.299011038749654 -66.97383964891246 -9.945365862838713 0 0 0
53 3 1 62.229227309774984 -69.94250018483908 -13.487321957304047 0 0 0
54 3 1 66.07462462641027 -73.08678557182063 -14.147599455117188 0 0 0
55 3 1 62.86803249467252 73.42730480333577 -15.809277658250721 0 -1 0
56 3 1 66.69163492126168 70.96878179487581 -13.733790347910144 0 -1 0
57 3 1 68.33077134977594 72.82196283384334 -9.362712432636485 0 -1 0
58 3 1 67.553942917651 -72.42843631223147 -8.052809420912553 0 0 0
59 3 1 66.68038259672863 -68.70758265155312 -11.292405292882727 0 0 0
60 3 1 66.13167705247756 -70.22265233846588 -16.01987945059068 0 0 0
61 3 1 70.1109617490099 -73.22406722074886 -15.400885152282022 0 0 0
62 3 1 67.64319009100322 73.15358811526846 -12.983502273703714 0 -1 0
63 3 1 69.7148524271484 72.3044365346309 -17.4456591297562 0 -1 0
64 3 1 66.84418175117241 70.15252320579145 -20.937677826544586 0 -1 0
65 3 1 65.54139387842906 71.88474737707668 -25.43501232679163 0 -1 0
66 3 1 67.43885343544449 -74.09870464675082 -27.72663875151766 0 0 0
67 3 1 65.09371128993388 -72.06469682046958 -31.63010552935222 0 0 0
68 3 1 66.54978690758676 -73.85575849305697 -36.057247952151556 0 0 0
69 3 1 63.57211884696568 72.2749399345793 -35.006164019215305 0 -1 0
70 3 1 65.03390664685176 74.40729862803542 -30.740967343596665 0 -1 0
71 3 1 68.93646262052823 -72.53410895009141 -30.23787475320745 0 0 0
72 3 1 69.70511820768434 -67.86357554031127 -31.79458119985079 0 0 0
73 4 1 28.906602015079258 -74.8427406939752 -0.48940991195672723 0 0 0
74 4 1 29.065776789167288 74.80596018891981 4.498705146914503 0 -1 0
75 4 1 33.75875263410765 74.22517790347973 6.104463858046387 0 -1 0
76 4 1 37.48819671034575 -73.21565526226892 3.9569818896376887 0 0 0
77 4 1 41.76694970714651 -72.2913743128667 6.3846466262288715 0 0 0
78 4 1 43.98006617343472 74.21828258213884 9.215145506765282 0 -1 0
79 4 1 41.61321527557902 70.46531573158873 11.566753222928497 0 -1 0
80 4 1 44.31507591147208 68.49570685760716 15.296114298865348 0 -1 0
81 4 1 42.608152647193506 63.81378892221241 15.03258536398242 0 -1 0
82 4 1 39.13668366562456 67.31538434037924 15.876329478243377 0 -1 0
83 4 1 36.429931671030644 68.69632500890015 11.906907692937338 0 -1 0
84 4 1 34.88572061852159 73.44922258934989 11.974615560591062 0 -1 0
85 4 1 38.246511636722914 -72.85683035831698 11.656458294581512 0 0 0
86 4 1 39.0345474671136 -70.26206169909754 7.464575222615451 0 0 0
87 4 1 35.28121077613953 -67.94239511462645 5.13554853743382 0 0 0
88 4 1 36.48102306367345 -64.51807754220579 1.725800764841452 0 0 0
89 4 1 39.619148816483445 -65.78927491717786 -1.9697592911989688 0 0 0
90 4 1 38.464484792079816 -63.074793315028245 -6.027107512956661 0 0 0
91 4 1 38.406454128702975 -65.61381514412449 -10.336093178287612 0 0 0
92 4 1 38.45479801650738 -67.88666405457177 -14.792806888611892 0 0 0
93 4 1 42.87800566860085 -67.34553797962104 -12.53937178409273 0 0 0
94 4 1 47.05553937765072 -65.63585484986758 -14.698470879141126 0 0 0
95 4 1 48.03223570098986 -60.71833881719526 -14.773131642410796 0 0 0
96 4 1 52.41960731748398 -59.38543938053067 -12.799154222875302 0 0 0
97 5 1 40.660024553046 -19.51221494806896 -0.6037705552878805 0 0 0
98 5 1 45.147618212284826 -18.92919540426307 1.5197331139857937 0 0 0
99 5 1 48.86447379277199 -21.67255353054533 -0.3793351213123941 0 0 0
100 5 1 47.551313327658804 -26.369406130085267 -1.4981835662622842 0 0 0
101 5 1 49.00446749624142 -22.216078267269005 -3.8687693877035656 0 0 0
102 5 1 53.64399304687677 -20.505584176134313 -3.1162128515309746 0 0 0
103 5 1 56.695862471710086 -22.279877036267308 0.41719496795990096 0 0 0
104 5 1 55.469208813743535 -19.14376346213036 4.116731186440489 0 0 0
105 5 1 50.74672990958315 -17.658606920966548 4.662492034488821 0 0 0
106 5 1 48.851413656671895 -13.869081738962649 2.013618190603637 0 0 0
107 5 1 44.08323009652814 -12.379216630456163 2.347610116459279 0 0 0
108 5 1 43.64882931006231 -7.548963072484028 3.5953240531820114 0 0 0
109 5 1 41.49608757618208 -4.012385521132174 0.8081356451230022 0 0 0
110 5 1 43.62609451010391 0.4664483577375904 1.4779145591184175 0 0 0
111 5 1 48.47288521570832 1.1286709584957464 0.41409529925866195 0 0 0
112 5 1 51.6295863582919 -2.6207854274887836 -0.5185093993274563 0 0 0
113 5 1 55.81858271456923 -0.28133383774869003 0.9072181713489158 0 0 0
114 5 1 58.28431899369491 -1.8160056040962331 4.974372135690146 0 0 0
115 5 1 62.0837022816001 0.1444828933611717 7.57757352715646 0 0 0
116 5 1 62.99551093122602 -1.3089395249146918 12.276352182968054 0 0 0
117 5 1 63.85321364200013 3.383585094617999 13.757075199924998 0 0 0
118 5 1 61.881416023399595 6.70531823393614 10.573022326372069 0 0 0
119 5 1 61.87268810938082 11.6054667430965 11.609051021887353 0 0 0
120 5 1 64.34885678818353 14.965012550587161 8.853612152065452 0 0 0
121 6 1 -29.886484297957203 -54.5200318020771 68.91126581123618 0 0 0
122 6 1 -31.062181642301717 -53.36410441025769 73.62658477028046 0 0 0
123 6 1 -28.391079025596603 -50.10917659591261 -73.68592715253996 0 0 1
124 6 1 -24.47873246347727 -47.92795737725251 74.09799053135663 0 0 0
125 6 1 -23.800665656832656 -49.01010952626203 69.27397045528309 0 0 0
126 6 1 -23.38003289568212 -47.07446368240555 64.6776961378844 0 0 0
127 6 1 -26.066471893647687 -48.69844805156585 60.78533673375179 0 0 0
128 6 1 -25.64257329315184 -52.89958711199483 58.109822130218646 0 0 0
129 6 1 -21.72281291943505 -55.05139130904892 55.872189668390234 0 0 0
130 6 1 -18.21026866396636 -51.56720135117896 56.49068708650256 0 0 0
131 6 1 -19.20342512214247 -46.9982624937651 54.65923562070523 0 0 0
132 6 1 -19.648724865851825 -46.88936603965975 49.69554715024715 0 0 0
133 6 1 -24.219716614252363 -47.533939993178436 47.78307407174236 0 0 0
134 6 1 -28.25059292471895 -47.82603859365898 50.736640215405316 0 0 0
135 6 1 -27.828345454944944 -47.80117745144547 55.71204674952523 0 0 0
136 6 1 -30.552006065834178 -45.02099287705398 58.861521402619815 0 0 0
137 6 1 -32.32995362352329 -46.922318900847415 63.13262762065153 0 0 0
138 6 1 -36.68399385363459 -47.18608374993046 65.53767154324078 0 0 0
139 6 1 -38.253433753526295 -51.37481242965728 67.76855788076426 0 0 0
140 6 1 -36.094566444284595 -49.561742206819886 63.64182001708545 0 0 0
141 6 1 -37.74514777914688 -51.46638206917674 59.32160467110731 0 0 0
142 6 1 -32.95887518460822 -51.922545220031594 58.00105096331632 0 0 0
143 6 1 -31.591980168492164 -52.63121154850366 53.24482469102065 0 0 0
144 6 1 -29.540325143071314 -57.05269890155694 52.14957398803902 0 0 0
145 7 1 40.80284021417937 32.41507725010186 -22.69766190198242 0 0 0
146 7 1 41.303261334819766 32.869381546324476 -27.648849901147635 0 0 0
147 7 1 41.29571997023223 37.59493776836197 -29.311476963784322 0 0 0
148 7 1 37.26366579844685 40.01958343095501 -27.591229897222043 0 0 0
149 7 1 32.741563994385444 40.28970688506446 -29.719186131656684 0 0 0
150 7 1 28.926409023900433 41.87700105152054 -26.923714277563874 0 0 0
151 7 1 24.796550432624556 43.93984678974131 -28.85341283287601 0 0 0
152 7 1 24.50416775784572 46.26754557704936 -33.267233328797076 0 0 0
153 7 1 20.81837597339252 49.617348634275245 -33.676388735880124 0 0 0
154 7 1 21.123779802426668 52.93618075275279 -37.40132460597784 0 0 0
155 7 1 22.641958769563487 51.02359874829236 -41.76537778878864 0 0 0
156 7 1 19.624678499076936 54.11494173222002 -44.29460224431923 0 0 0
157 7 1 17.02726011944155 52.274324313650524 -48.13200772757387 0 0 0
158 7 1 17.564372014456268 53.21613957449128 -53.01270224781051 0 0 0
159 7 1 14.266371466387127 51.12970961240764 -56.15500325662448 0 0 0
160 7 1 14.96422196330208 46.751771203044115 -53.84784971077802 0 0 0
161 7 1 14.001902644827467 50.137283618118815 -57.40511735005232 0 0 0
162 7 1 17.540712264836415 50.73343496757265 -60.87100212731579 0 0 0
163 7 1 19.0233876452631 47.074942520788355 -63.937471832949015 0 0 0
164 7 1 16.37789597694359 43.36139363739656 -66.009475034117 0 0 0
165 7 1 13.341234285116201 45.16698965279021 -69.52580357189284 0 0 0
166 7 1 14.445534396818715 48.14775806768097 -73.39927629975348 0 0 0
167 7 1 17.438889305425462 52.13595774363114 -73.01314134276404 0 0 0
168 7 1 22.406454481058702 52.1590002773644 -73.67171685883626 0 0 0
169 8 1 57.689398047845515 -40.21619178123705 -15.28535443275534 0 0 0
170 8 1 54.68972834860341 -39.533219923668476 -19.25164407408859 0 0 0
171 8 1 56.76693116362782 -36.28391127120525 -22.45120411866604 0 0 0
172 8 1 55.26762036770336 -35.404610957632734 -27.14529584606585 0 0 0
173 8 1 51.058842288047785 -32.88484451345777 -28.163095139979895 0 0 0
174 8 1 49.8392121984554 -32.96882944570621 -32.999358603140834 0 0 0
175 8 1 49.60949423908609 -28.70415766873878 -35.58166781261663 0 0 0
176 8 1 45.75081975894916 -28.664853090326844 -38.809695661932 0 0 0
177 8 1 45.22608457640756 -32.595037302674584 -41.885827427144754 0 0 0
178 8 1 46.52280997856687 -28.079742367862288 -40.201726455562905 0 0 0
179 8 1 44.10422923670714 -24.079759223685258 -41.96447252427978 0 0 0
180 8 1 40.679302780699885 -24.8393682417668 -45.52347068368752 0 0 0
181 8 1 39.40209729557303 -20.8382528165327 -48.2391606414745 0 0 0
182 8 1 35.80845500836355 -17.955965377028875 -46.288887683533176 0 0 0
183 8 1 36.79368725287162 -17.984353546715738 -41.36953837735399 0 0 0
184 8 1 34.57077244168633 -14.097466523412365 -39.12099887117004 0 0 0
185 8 1 31.755149747696265 -10.66532351575043 -41.436769350375656 0 0 0
186 8 1 26.75568251222603 -10.688825796114415 -41.634976563383155 0 0 0
187 8 1 23.3423963198846 -8.4459327001546 -38.74689224575048 0 0 0
188 8 1 22.68714392512088 -9.508602743605195 -33.907886506067534 0 0 0
189 8 1 17.926238279093823 -7.969643419828003 -33.8374788161354 0 0 0
190 8 1 13.85434043677435 -10.720261865257257 -34.708620872083195 0 0 0
191 8 1 14.416008244890449 -13.523713772446222 -30.613914440960016 0 0 0
192 8 1 17.642367981506993 -13.356935514513623 -34.42156548034232 0 0 0
193 9 1 43.79094932736551 16.561435198767754 41.34734020916625 0 0 0
194 9 1 42.17612010685551 12.043952771185317 42.74074644349649 0 0 0
195 9 1 41.53227124455073 15.15951380706062 38.878948657806745 0 0 0
196 9 1 41.685229476221664 20.121615154613053 39.55105098645808 0 0 0
197 9 1 43.717990481702756 21.543129929644593 43.88946971771827 0 0 0
198 9 1 45.25568436011645 26.2883635432524 44.323900410805265 0 0 0
199 9 1 42.825624385728645 28.579661837548215 48.046811579242274 0 0 0
200 9 1 42.10365770892082 33.53013473648825 47.90697232138746 0 0 0
201 9 1 42.3832830941047 36.39055315376146 52.00790286505679 0 0 0
202 9 1 46.5305358294023 37.92584094013468 54.31659010278145 0 0 0
203 9 1 51.24156901552281 38.57840013144438 52.747715966996196 0 0 0
204 9 1 54.671429232139275 41.09698425061819 55.35035445873339 0 0 0
205 9 1 54.86549950430492 45.65203782226463 53.294235841570014 0 0 0
206 9 1 52.26672239216673 49.15672475014428 55.72639653966826 0 0 0
207 9 1 47.57194231833351 49.77136695977306 54.134860380180925 0 0 0
208 9 1 46.1193728741646 52.633279926637016 50.31486732194547 0 0 0
209 9 1 48.392201339255664 53.596790972159994 45.95479343835903 0 0 0
210 9 1 45.565560783834414 54.171873891542646 41.88472003217882 0 0 0
211 9 1 43.542653502105225 50.35749282429063 39.369492571828815 0 0 0
212 9 1 46.97437188453473 53.79262473929185 38.151232274145514 0 0 0
213 9 1 46.4371937094768 58.57926659457581 39.57222673383097 0 0 0
214 9 1 45.53965948504565 61.743794551289255 35.80739525388401 0 0 0
215 9 1 47.20731172011847 66.45178708390887 35.72822523087153 0 0 0
216 9 1 52.12394722855851 67.22879976451296 35.16606367074901 0 0 0
217 10 1 12.921860282749307 13.404491851691546 64.46850064058742 0 0 0
218 10 1 14.156332365445408 10.983694058112775 60.28453327412737 0 0 0
219 10 1 15.110737514406523 10.849932185380624 55.397457944980545 0 0 0
220 10 1 19.999060907114654 11.82250824973734 54.80230157515388 0 0 0
221 10 1 23.053728170594937 13.415652357756159 58.388565005203446 0 0 0
222 10 1 22.317787853814025 11.602718422253488 62.999906938626026 0 0 0
223 10 1 22.83118115997786 16.30972263568661 64.6182036349756 0 0 0
224 10 1 21.789805345685863 17.98336212358828 69.21169436736977 0 0 0
225 10 1 22.10960815750785 22.80307974365475 70.45235958901546 0 0 0
226 10 1 23.896869710970122 26.163062940749995 67.20484032655816 0 0 0
227 10 1 28.686795661920087 27.551662521280477 67.56835184325189 0 0 0
228 10 1 32.31431940748752 24.41858991253467 69.01316600771841 0 0 0
229 10 1 34.14563035565325 25.38124150077944 64.45683103221776 0 0 0
230 10 1 32.10706103801331 25.426282783233432 59.88968171610668 0 0 0
231 10 1 28.25168627226614 22.46028953642505 58.717887995983745 0 0 0
232 10 1 28.505213711601613 20.34437116122355 63.231558644921876 0 0 0
233 10 1 29.147573170956377 25.104068433524162 64.60194406458066 0 0 0
234 10 1 30.690636037973874 26.47022507859505 69.15445743142317 0 0 0
235 10 1 35.52095659270476 27.631519708730806 69.53806080579784 0 0 0
236 10 1 39.31050987392507 24.54598055840549 68.5279352399526 0 0 0
237 10 1 40.356894022969556 27.595056650874326 64.6812265254851 0 0 0
238 10 1 38.09076238762022 26.85482432225362 60.273127322357595 0 0 0
239 10 1 35.90840626265472 31.142552647216974 58.8310874759994 0 0 0
240 10 1 32.6164739475215 33.44969248436246 61.79869904800347 0 0 0
241 11 1 30.413396010587846 40.78871260412684 52.56461033154028 0 0 0
242 11 1 34.94380506706683 41.285030322352426 54.629474553383204 0 0 0
243 11 1 36.0952281043847 42.12415641132108 59.40067548323199 0 0 0
244 11 1 34.93009710138773 38.7183924533699 62.86750770918235 0 0 0
245 11 1 33.90143763176994 43.42439962757035 61.52125819574425 0 0 0
246 11 1 36.48053510559606 46.327097263266324 58.378754220230434 0 0 0
247 11 1 41.42347126617338 46.50159825783042 57.71685975293204 0 0 0
248 11 1 43.55283021617572 45.372025261564815 53.342370778631505 0 0 0
249 11 1 42.914786234375114 41.313308171013986 50.48293898095392 0 0 0
250 11 1 42.05008089580507 45.2533251945261 53.420414142827156 0 0 0
251 11 1 46.133978675572706 47.282890351439306 55.499850077474946 0 0 0
252 11 1 50.555899267563376 48.196232865407836 53.35810957933245 0 0 0
253 11 1 51.91820646517216 46.562979140929755 48.8301096732031 0 0 0
254 11 1 50.79636717017756 43.20215766028289 45.289104632781175 0 0 0
255 11 1 48.48598715913239 38.87367147798291 44.41726804327372 0 0 0
256 11 1 47.401500104367 40.97553540482957 40.00175251704154 0 0 0
257 11 1 51.579853043183945 42.190118293718484 37.58058910491157 0 0 0
258 11 1 50.92993976087759 46.01282012557725 34.42869154329529 0 0 0
259 11 1 48.530160927010144 50.254679478920266 35.54654437510894 0 0 0
260 11 1 43.60255919236589 50.4490420406527 34.650922315523346 0 0 0
261 11 1 42.534000284151006 47.4964412345152 30.76059904399213 0 0 0
262 11 1 43.28563727094772 45.95305924433809 26.066356562994642 0 0 0
263 11 1 41.67328074080109 45.59471681297485 21.358294824482087 0 0 0
264 11 1 38.070484997879106 42.273108312650166 20.345627134700507 0 0 0
265 12 1 -42.65130006546984 9.093601689802583 -66.68961455449919 0 0 0
266 12 1 -41.427164901326016 9.054314227324198 -61.83508099330704 0 0 0
267 12 1 -39.018399213885566 5.063968773101692 -60.035543634725144 0 0 0
268 12 1 -38.359358788547055 6.9021260532372395 -64.63244902368655 0 0 0
269 12 1 -40.828357717480316 10.894695874609084 -66.31872551261853 0 0 0
270 12 1 -41.311092217995096 11.312182074833117 -71.26909969102691 0 0 0
271 12 1 -36.86020044765781 11.760445825221112 -73.49228635217344 0 0 0
272 12 1 -32.95664974238971 13.11413294221525 -70.67938736451212 0 0 0
273 12 1 -28.38025546636193 12.516847588351553 -72.60633769600679 0 0 0
274 12 1 -25.754106165310823 12.240724871029158 -68.36441147564464 0 0 0
275 12 1 -20.792361330216934 12.073456821681702 -67.84794745270503 0 0 0
276 12 1 -17.82422766642498 8.065737484022861 -67.73204140451693 0 0 0
277 12 1 -15.601394632476818 10.431632855140279 -63.932386495099294 0 0 0
278 12 1 -11.07236115476725 12.46025374411353 -63.41047731617523 0 0 0
279 12 1 -8.835626819555202 15.345573788491691 -66.83044261405344 0 0 0
280 12 1 -3.8669164120336887 15.361745431726689 -67.52020565842935 0 0 0
281 12 1 -1.2512394775881859 18.402263503559453 -64.53150318997386 0 0 0
282 12 1 1.0677818380751773 22.436112226102168 -66.37969847977055 0 0 0
283 12 1 3.780257308562156 23.090165671161472 -70.51030381129901 0 0 0
284 12 1 1.464609636108321 24.913702863308657 -74.53953654474192 0 0 0
285 12 1 0.9243601483426289 23.123792909941884 70.83864648318993 0 0 -1
286 12 1 -2.7455221905103286 20.625808152621147 73.10931592365267 0 0 -1
287 12 1 0.6947764894313906 17.872356395772414 -74.53985534631175 0 0 0
288 12 1 -1.041448714518637 20.11751022772934 -70.41462048228618 0 0 0
289 13 1 -72.27453682498042 -23.184193258306777 -44.79705430118376 0 0 0
290 13 1 -71.04169581061805 -26.127764495782664 -48.64814652637149 0 0 0
291 13 1 -68.04127179765257 -27.360967329995326 -52.47744766609202 0 0 0
292 13 1 -65.00172180642633 -23.406928071610167 -53.06172147965334 0 0 0
293 13 1 -61.0895176035384 -23.238883712540037 -56.1565296646279 0 0 0
294 13 1 -59.19966230511261 -19.006984792803387 -58.072535320661174 0 0 0
295 13 1 -61.07804520334046 -16.197223631120245 -61.74043808217749 0 0 0
296 13 1 -63.69735784448329 -18.365990272484716 -65.38480655024767 0 0 0
297 13 1 -67.60594309145436 -17.435591482053617 -62.41909945562121 0 0 0
298 13 1 -69.74510015185544 -20.36673121489435 -58.99785743748387 0 0 0
299 13 1 -74.2885536986111 -20.729825802123386 -56.912074406069806 0 0 0
300 13 1 -74.3794305621877 -20.549282449039772 -51.91777075568734 0 0 0
301 13 1 71.32786113116575 -19.78387295421718 -49.50744753185917 -1 0 0
302 13 1 67.12530479073507 -19.47771787930025 -52.19698473106528 -1 0 0
303 13 1 62.586863118753854 -20.173764794883887 -50.222416673014465 -1 0 0
304 13 1 60.81214279692756 -15.773823430046058 -48.692158392272205 -1 0 0
305 13 1 56.82715961584546 -15.21166450856915 -45.71216069006613 -1 0 0
306 13 1 55.43896836062575 -18.495236890783353 -42.21311755359642 -1 0 0
307 13 1 58.74291132469099 -18.106485555753387 -45.95057876125463 -1 0 0
308 13 1 57.66851291837145 -14.840800292963692 -49.562564228455855 -1 0 0
309 13 1 55.36829640271807 -15.991376487537657 -53.85107443764123 -1 0 0
310 13 1 53.43371453178213 -12.818712126802573 -57.18648097418026 -1 0 0
311 13 1 49.071956955392864 -13.280284414797158 -59.600085352512714 -1 0 0
312 13 1 44.230002921004825 -12.72294607031612 -58.47708590354705 -1 0 0
313 14 1 -41.97015798513528 38.8309848889661 23.01155877519855 0 0 0
314 14 1 -42.161001378907685 40.26309539807755 27.79716173125142 0 0 0
315 14 1 -45.62980685542834 43.28989030882235 29.739110285195466 0 0 0
316 14 1 -45.22809244846457 48.268158377462925 29.46445416789271 0 0 0
317 14 1 -46.25375931745552 50.86570546114186 33.613991576425164 0 0 0
318 14 1 -50.392871324319195 49.75264363855558 36.18388712152159 0 0 0
319 14 1 -49.76908778847363 45.536937525785916 38.79413776525996 0 0 0
320 14 1 -51.216461302020605 45.615380311365485 43.58459570069138 0 0 0
321 14 1 -55.89746369646841 43.925142835111316 44.25560946557931 0 0 0
322 14 1 -55.866698592376714 39.16276128225502 45.81126640264684 0 0 0
323 14 1 -53.490484782397864 43.41659333197924 44.701564556618294 0 0 0
324 14 1 -51.28693734524853 44.51457040300083 40.36290344534194 0 0 0
325 14 1 -47.702431081395 47.88933721253221 41.220810540646184 0 0 0
326 14 1 -44.7263058984689 49.22209394962185 37.43168806696053 0 0 0
327 14 1 -40.758551057774696 51.92004844682664 38.79226836983115 0 0 0
328 14 1 -36.44203946368747 49.517899967262494 39.42379164122909 0 0 0
329 14 1 -33.293155793534595 51.75976691375102 36.25623180798152 0 0 0
330 14 1 -29.78865216112075 54.73535891860806 38.241969914040624 0 0 0
331 14 1 -31.761375582473455 58.59400982828737 40.719229404996796 0 0 0
332 14 1 -35.97029650238018 60.709302674048814 39.024393590563534 0 0 0
333 14 1 -37.87582785278281 59.003778523082445 34.72979097781523 0 0 0
334 14 1 -35.02619892460194 61.897698294504806 31.788507175569535 0 0 0
335 14 1 -31.92862101774874 60.07674606174015 28.313493914449083 0 0 0
336 14 1 -27.119877374265812 58.737566392724574 28.72869370102312 0 0 0
337 15 1 61.10233906175719 -30.770006845752008 -2.587125341189008 0 0 0
338 15 1 57.16451468476478 -30.65303077601495 0.47719926330873363 0 0 0
339 15 1 57.66153459978804 -33.72524358277792 4.408728303499373 0 0 0
340 15 1 59.3172301191353 -37.46606451374276 7.249192753723406 0 0 0
341 15 1 56.092033273264605 -36.73021705662192 3.517180676580864 0 0 0
342 15 1 58.666743086378546 -35.260772527388255 -0.5062265824058869 0 0 0
343 15 1 57.57809530140108 -31.284779130278146 -3.3520370448027705 0 0 0
344 15 1 60.88540735199771 -27.546364927233206 -3.184241861915652 0 0 0
345 15 1 58.29472076523331 -23.260461992167656 -3.431965335795553 0 0 0
346 15 1 59.889211613689355 -19.704014253081496 -0.27176282074459834 0 0 0
347 15 1 61.619090166358006 -20.539736806039308 4.363542179946222 0 0 0
348 15 1 64.34194092905568 -24.399997507405843 5.98571739115215 0 0 0
349 15 1 65.52001642166488 -22.514524433590182 1.4882236330311116 0 0 0
350 15 1 70.1372023021633 -23.015042682014297 -0.3532323252191816 0 0 0
351 15 1 73.95782279545108 -22.968336491541223 2.8495923064507167 0 0 0
352 15 1 74.21177341833345 -25.394527087234515 7.228107214956111 0 0 0
353 15 1 73.46242903915564 -27.819868897586694 11.535237565307185 0 0 0
354 15 1 73.89972247047461 -29.08579400840933 16.349127906605375 0 0 0
355 15 1 72.51403494668071 -33.8415502624486 15.701438828363635 0 0 0
356 15 1 70.38232772233843 -30.389539825723695 18.619431110511925 0 0 0
357 15 1 73.0599550106254 -28.314155574073453 22.317193344714454 0 0 0
358 15 1 -72.73237803498239 -25.787436766960575 21.358460208699995 1 0 0
359 15 1 -71.89453403702765 -20.877286019363552 20.866292964590826 1 0 0
360 15 1 74.10105020822655 -18.09171352480795 19.81952145981208 0 0 0
361 16 1 -7.92063475431182 30.697888020845852 -2.453932278150859 0 0 0
362 16 1 -4.319829406621935 29.990323602079386 -5.862399160329787 0 0 0
363 16 1 0.6177138592571083 30.406474429335447 -5.242783481235065 0 0 0
364 16 1 2.990979200370248 32.40141907755398 -1.3186941515018589 0 0 0
365 16 1 7.081024454607288 35.10026453036882 -2.2421659990487655 0 0 0
366 16 1 7.030084729295524 39.24950185941081 -5.0289467846722005 0 0 0
367 16 1 10.508905224141174 39.39600642966481 -8.620854051917917 0 0 0
368 16 1 13.33162375449119 43.51470343829105 -8.406564949612175 0 0 0
369 16 1 12.412447836995767 46.74474383671637 -4.681608777427684 0 0 0
370 16 1 15.84433908933859 50.343067988821886 -4.101464981050668 0 0 0
371 16 1 18.999900620970323 50.34679229923282 -7.974272708875688 0 0 0
372 16 1 18.63442396154629 46.945182564193516 -11.617415322394955 0 0 0
373 16 1 19.794074158412144 48.027988881052764 -6.868930274019505 0 0 0
374 16 1 20.782510052203392 52.86851904205501 -6.013867712084107 0 0 0
375 16 1 21.28018816497037 54.049368863773225 -1.1800317220019423 0 0 0
376 16 1 17.143768012752773 54.65528424891821 1.5810588003015198 0 0 0
377 16 1 15.683454155608047 59.389974675541424 2.321090945369761 0 0 0
378 16 1 10.741024626920606 60.16918548669105 2.194793306558836 0 0 0
379 16 1 7.764833822684267 56.529186125052206 0.4808946841601198 0 0 0
380 16 1 9.306703849099591 59.4837114692281 -3.2331110297450465 0 0 0
381 16 1 9.375592306670228 57.75288222246692 -7.923367478753136 0 0 0
382 16 1 4.702695399912031 59.52747370508564 -7.9581783409981455 0 0 0
383 16 1 2.734189422982496 61.214761666575384 -12.221214352146262 0 0 0
384 16 1 1.3403589722167908 57.70828205655286 -15.510079011242674 0 0 0
385 17 1 49.281750773770554 -17.94057318074637 -70.11495992966556 0 0 0
386 17 1 49.28032351487124 -17.942187409141894 74.88233014429309 0 0 -1
387 17 1 45.26559767534769 -20.09326772917155 72.79191077155147 0 0 -1
388 17 1 45.58782703553766 -25.013035285776972 71.95313999878337 0 0 -1
389 17 1 43.38348129350487 -22.10858523669694 -74.62840624328233 0 0 0
390 17 1 39.01114678601077 -23.689021134940816 -72.78414579808978 0 0 0
391 17 1 35.91754799552224 -19.919187809936354 -71.70460009624998 0 0 0
392 17 1 31.657372032945872 -19.045131010478137 -74.1758034166525 0 0 0
393 17 1 28.159526524232135 -15.833177729105472 -72.64076919239518 0 0 0
394 17 1 23.477394986096698 -17.462547065773258 -72.05623280154981 0 0 0
395 17 1 21.18609222934947 -18.84684909875999 73.73383074034788 0 0 -1
396 17 1 23.052105995924265 -19.785759684416227 69.19348498966406 0 0 -1
397 17 1 20.162690155436692 -16.88700059744366 66.3294611068603 0 0 -1
398 17 1 22.006782275842397 -12.484175846053255 64.88723182444434 0 0 -1
399 17 1 23.77422699826809 -8.765346795536445 67.73993957256903 0 0 -1
400 17 1 20.915086777821216 -5.103266092603533 69.55472894967906 0 0 -1
401 17 1 23.16715334536002 -0.780365707436161 70.76430489444553 0 0 -1
402 17 1 27.691153601427928 0.17844475963383388 68.82490668841328 0 0 -1
403 17 1 31.69772074764461 2.5771704906218815 70.62190714675353 0 0 -1
404 17 1 31.647515931930542 6.748183410360468 73.38396353155628 0 0 -1
405 17 1 31.250866341595966 11.096967779913228 70.95503806650143 0 0 -1
406 17 1 26.715190811177777 13.19488872385 71.12233341513485 0 0 -1
407 17 1 26.285408670910442 16.39363708992701 67.31888860260747 0 0 -1
408 17 1 22.879196738088496 20.0552673105301 67.24896993927541 0 0 -1
409 18 1 72.76567797804839 -30.641732028467352 41.31796430620366 0 0 0
410 18 1 72.60177219442386 -30.56435624648953 36.33561695014039 0 0 0
411 18 1 -74.90645143976027 -27.10287535038551 33.69280202793337 1 0 0
412 18 1 73.76285994773545 -22.456885588600635 32.41464906983313 0 0 0
413 18 1 73.99687908953399 -18.87923178573454 35.8882666627122 0 0 0
414 18 1 -71.86825244009438 -16.07875921522197 35.53372204028891 1 0 0
415 18 1 -70.06329354392619 -15.522711964495876 30.898175707713804 1 0 0
416 18 1 -73.02539095212927 -13.210318686752103 27.588291176049637 1 0 0
417 18 1 -72.67159835672285 -14.197481974022828 22.721928865919807 1 0 0
418 18 1 73.1607208513658 -11.96627389003281 21.064682332106898 0 0 0
419 18 1 69.81009955346889 -14.531725599811239 18.378410731507955 0 0 0
420 18 1 71.36444526816831 -18.179251146413897 15.358423158491107 0 0 0
421 18 1 69.5257072972708 -20.027467396857453 11.103405552852465 0 0 0