LAMMPS data file via create_A-model.py, version 13 Dec 2022

12288 atoms
1 atom types
11776 bonds
1 bond types
11264 angles
1 angle types
10752 dihedrals
1 dihedral types

-75.0 75.0 xlo xhi
-75.0 75.0 ylo yhi
-75.0 75.0 zlo zhi

Masses

1 68.117

Atoms # molecular

1 1 1 4.370185373113998 10.006046810445952 -1.3563357859456175 0 0 0
2 1 1 1.4254316865014118 10.067747149472012 2.7083678985392226 0 0 0
3 1 1 2.5746865434011 12.099455393029984 7.110260861089131 0 0 0
4 1 1 7.386451420137433 11.978190430370134 8.54853535015566 0 0 0
5 1 1 10.516337620601107 15.057289552062201 6.1153276833253045 0 0 0
6 1 1 14.641974968957072 16.385345629633434 8.605199299556077 0 0 0
7 1 1 14.345122479217807 20.200862352933086 11.821478146924335 0 0 0
8 1 1 15.036692800151812 19.08982939880397 16.6445621609395 0 0 0
9 1 1 14.994627955563615 21.117469293309966 21.23632885421111 0 0 0
10 1 1 18.48997262642345 18.937979351243683 24.06900368898556 0 0 0
11 1 1 18.795561852884916 22.76656042876823 27.2767676813845 0 0 0
12 1 1 17.83605004410113 22.67250141420746 32.18772896270927 0 0 0
13 1 1 21.673120024839804 23.888689594342367 35.153992507775826 0 0 0
14 1 1 21.85508999705752 27.421689915318055 38.7037160462862 0 0 0
15 1 1 17.772678382935865 30.010275181535235 40.00412866568465 0 0 0
16 1 1 17.277364727100576 34.4527503287039 37.790350776893604 0 0 0
17 1 1 19.293487457294574 38.53204780985982 39.86176409806532 0 0 0
18 1 1 22.862453221322355 41.33414223169214 37.755651316040456 0 0 0
19 1 1 24.35591019180437 39.64763811323195 33.284429847422345 0 0 0
20 1 1 28.381229644324677 39.456505314114935 30.318958157905655 0 0 0
21 1 1 31.710381009969183 43.11978421543975 29.721336201443933 0 0 0
22 1 1 31.24304446038417 47.783309815834016 31.46733197719327 0 0 0
23 1 1 34.93286010427411 50.89512689337518 32.75168901058353 0 0 0
24 1 1 33.90335770621145 55.79138424140032 32.889687853172234 0 0 0
25 2 1 56.212662864198336 20.145690866413872 -23.83528948637842 0 0 0
26 2 1 54.2145420844158 16.672014589686825 -26.828120207961945 0 0 0
27 2 1 53.371868295559295 21.6195937846648 -26.73242263608749 0 0 0
28 2 1 48.74643777047555 23.494164104747412 -26.395771923684052 0 0 0
29 2 1 47.63722125629759 27.526450238411485 -23.64443167420552 0 0 0
30 2 1 50.71126641002721 31.43665166710332 -23.11971528034109 0 0 0
31 2 1 55.65956452323047 30.96088425212379 -23.435467494939083 0 0 0
32 2 1 57.59037001394543 26.48918411918767 -22.34323310954028 0 0 0
33 2 1 62.38611778441657 27.847710660824404 -22.450783305151965 0 0 0
34 2 1 63.39598727970548 32.57261820332556 -23.753651190173272 0 0 0
35 2 1 60.19248518524705 36.27849596293886 -24.78341304356978 0 0 0
36 2 1 61.94200256401825 40.87611157463242 -25.745128877841886 0 0 0
37 2 1 62.46336452351116 44.50720735622586 -22.33493516701921 0 0 0
38 2 1 60.24228214195844 43.078183417488844 -18.08715074678772 0 0 0
39 2 1 59.939374037343185 45.39549189787738 -13.660784389165023 0 0 0
40 2 1 63.31177782951343 43.454133861512304 -10.503399086693847 0 0 0
41 2 1 61.08099325645972 39.24916095264206 -9.004540227391445 0 0 0
42 2 1 57.69210556433967 41.38208465442992 -5.98517920115944 0 0 0
43 2 1 53.54146093207956 38.8302462943747 -4.8117802673938 0 0 0
44 2 1 54.41242069015502 33.90007587700842 -4.693796901054441 0 0 0
45 2 1 55.093066713589735 37.10616532709281 -0.9234868892797437 0 0 0
46 2 1 51.75236462121693 35.58146207698957 2.467306859764335 0 0 0
47 2 1 54.216064090861124 32.92510598741558 5.899965292451043 0 0 0
48 2 1 53.09193043961707 37.31924796032045 8.012493328113052 0 0 0
49 3 1 -7.9194956284965485 -53.213653386612265 -45.498709965603425 0 0 0
50 3 1 -3.3631751104398404 -52.62136437564918 -47.465974992819824 0 0 0
51 3 1 0.11455847966352906 -56.12091486736283 -46.6490391185166 0 0 0
52 3 1 -2.684613708373334 -59.265725072214394 -43.94734168905019 0 0 0
53 3 1 -7.687333666569742 -59.026797076268586 -43.791657263961966 0 0 0
54 3 1 -10.816313300029066 -55.140292831204206 -43.728630220376175 0 0 0
55 3 1 -11.563439809586498 -51.89863079851855 -47.469057311220524 0 0 0
56 3 1 -8.092508768104395 -48.358511182485174 -48.32181489902815 0 0 0
57 3 1 -7.986730713066919 -45.39430275565459 -52.34146752155763 0 0 0
58 3 1 -9.333495677133598 -40.70281029849915 -51.27197219567749 0 0 0
59 3 1 -10.11036278878035 -39.1434383703761 -46.56880013676758 0 0 0
60 3 1 -11.389899178273623 -42.63064229002384 -43.19925106471387 0 0 0
61 3 1 -10.790285230308598 -47.467460815674414 -42.12771688525647 0 0 0
62 3 1 -14.166753909002523 -44.16517535386348 -43.72269684261864 0 0 0
63 3 1 -14.491515854819383 -39.325835161206854 -42.51326295773494 0 0 0
64 3 1 -10.48344007484863 -36.55130090701776 -41.344212239804456 0 0 0
65 3 1 -7.328599906870622 -38.83641272854369 -38.2085215607423 0 0 0
66 3 1 -3.8935043961246976 -39.69276493503065 -41.714726540362484 0 0 0
67 3 1 0.8463361566525691 -39.91008043982525 -40.093896837300704 0 0 0
68 3 1 4.287888347995121 -37.525063811905895 -42.79649652981005 0 0 0
69 3 1 6.389229303359116 -39.53797409129289 -46.85148104274623 0 0 0
70 3 1 8.972563955829287 -43.65184045083465 -48.066944607917435 0 0 0
71 3 1 4.0621945970186175 -43.69227307127761 -49.023439982582474 0 0 0
72 3 1 2.727418865380301 -40.55613503481375 -52.66307198280538 0 0 0
73 4 1 -27.74591456000099 -60.21518330644767 -25.13394197430742 0 0 0
74 4 1 -27.73334266587851 -60.19874812450671 -30.129597357435827 0 0 0
75 4 1 -32.16974151421303 -59.82823574507862 -32.38491124883123 0 0 0
76 4 1 -36.33099517964138 -58.026375127369725 -30.29951867944547 0 0 0
77 4 1 -40.671361698327445 -60.12661630091613 -31.638853275159015 0 0 0
78 4 1 -43.36316761930495 -56.85836199114125 -34.28549840106142 0 0 0
79 4 1 -45.236826466107274 -58.211228260404255 -38.72573076823342 0 0 0
80 4 1 -47.07925257798557 -62.623415415368996 -40.18332817782234 0 0 0
81 4 1 -43.99060282616503 -66.03476044355574 -38.25691528045428 0 0 0
82 4 1 -48.66441059065092 -67.12346151648224 -36.82823255304577 0 0 0
83 4 1 -51.29034085676364 -66.76783975175717 -41.062834918713335 0 0 0
84 4 1 -51.74102073046022 -63.030878727588885 -44.35059414256139 0 0 0
85 4 1 -51.636315481398135 -64.06576019428445 -49.236139119125 0 0 0
86 4 1 -54.62785027798805 -66.17382124944041 -52.643409740353036 0 0 0
87 4 1 -53.08651503639854 -69.12615567514499 -56.351713859770946 0 0 0
88 4 1 -53.238305903835354 -70.56679894473038 -51.569074284278855 0 0 0
89 4 1 -54.241381554403404 -74.38552956352596 -48.52914669891957 0 0 0
90 4 1 -57.8591322717205 72.15704189518982 -48.31255376517068 0 -1 0
91 4 1 -59.229967203947055 73.95679819430657 -43.86218883447525 0 -1 0
92 4 1 -58.13158405010981 -71.77461738786162 -41.516890628264804 0 0 0
93 4 1 -59.501529472515266 -70.88057798647455 -36.794162974413474 0 0 0
94 4 1 -57.231675014356554 -73.14024999284213 -32.93658356760402 0 0 0
95 4 1 -55.68034576158785 -71.88690388755886 -28.34257032158174 0 0 0
96 4 1 -54.190412201068575 74.67062132433713 -25.03416808112759 0 -1 0
97 5 1 53.30486868226896 22.586927139821256 42.11997176287299 0 0 0
98 5 1 49.8263945419655 22.99527484505343 38.56761247044504 0 0 0
99 5 1 49.141857370120164 26.981488359898123 35.627580270750585 0 0 0
100 5 1 46.31905123555059 30.47888859889285 37.8071575456602 0 0 0
101 5 1 48.316851461859486 32.86776045243239 41.719216626861765 0 0 0
102 5 1 50.190306655899775 37.491391087935526 42.004752869710074 0 0 0
103 5 1 53.580318831592734 38.866214483940624 45.397051684334414 0 0 0
104 5 1 54.033393937762355 43.72144468620584 46.501079399377886 0 0 0
105 5 1 50.77999439137507 47.347314189834805 45.385980046533035 0 0 0
106 5 1 45.887573453007136 46.40563363985545 44.826275093761026 0 0 0
107 5 1 42.47356910092185 44.66411257704914 48.03547674181161 0 0 0
108 5 1 38.232247216988824 47.295266470392406 48.297523385196925 0 0 0
109 5 1 33.862989918546816 46.30310847215195 46.05131091718222 0 0 0
110 5 1 30.827081504854135 43.6804515940605 49.01968601982679 0 0 0
111 5 1 29.86046213983012 38.77755260550282 48.62007377030642 0 0 0
112 5 1 30.286324813012186 41.18768333485208 52.97758072182545 0 0 0
113 5 1 27.78341917275891 39.99985996399691 57.141387366808715 0 0 0
114 5 1 22.86658064308068 40.40422642501515 58.008321801456674 0 0 0
115 5 1 20.469458617774805 44.62996087871696 59.197040104227085 0 0 0
116 5 1 15.699131884881126 44.355258892186626 57.752303975983665 0 0 0
117 5 1 14.46415403938255 39.921257872308544 55.81776790458838 0 0 0
118 5 1 13.216096016965167 36.63178689985888 59.38059076846156 0 0 0
119 5 1 14.188902948261102 34.797122322623025 63.94179140214882 0 0 0
120 5 1 18.694279560853573 36.23448380081315 62.34974772189318 0 0 0
121 6 1 -53.70410996284788 49.36480915764385 55.5360388774543 0 0 0
122 6 1 -55.18563532466483 51.532667005883056 51.2789124842575 0 0 0
123 6 1 -59.71051231935397 53.34220594322812 50.18403113368545 0 0 0
124 6 1 -60.233076425794 56.55852809974576 46.42695873290235 0 0 0
125 6 1 -62.68734268417687 60.89273406803116 46.975594896360164 0 0 0
126 6 1 -67.27294240174277 62.49353259829422 45.86929712358287 0 0 0
127 6 1 -70.88353973371125 59.04067019273003 45.447767209717895 0 0 0
128 6 1 -71.7575580867834 59.64753783086306 50.32831266701126 0 0 0
129 6 1 -72.7236874648365 64.14698126571253 52.26928910926219 0 0 0
130 6 1 73.84315288474508 64.922904098591 55.81506837462652 -1 0 0
131 6 1 69.62534804788436 67.12195902714467 54.25792553116878 -1 0 0
132 6 1 65.35079250883621 65.70775776551523 56.433745986350345 -1 0 0
133 6 1 61.14758559475516 65.34380702240858 53.72771559574082 -1 0 0
134 6 1 59.429694191642994 61.148770076506736 51.62943805150296 -1 0 0
135 6 1 54.846894674710484 60.11770622241508 53.3541176677106 -1 0 0
136 6 1 54.31836921970506 56.46999973382975 56.71678513337659 -1 0 0
137 6 1 56.51456627599404 53.17003224368824 59.74721459631829 -1 0 0
138 6 1 55.92657551234697 48.18601723504446 59.84557184097568 -1 0 0
139 6 1 57.14830648632531 51.1439844797285 63.69480378713598 -1 0 0
140 6 1 57.08537238181145 49.414186479998676 68.411035683445 -1 0 0
141 6 1 61.30526595529696 48.11887449646612 66.06932816357411 -1 0 0
142 6 1 65.37057240921038 50.45828542475317 67.82469364171186 -1 0 0
143 6 1 69.5838849803279 48.116574849163015 66.48907492118687 -1 0 0
144 6 1 70.12734436877568 44.175648589885355 69.51794180235831 -1 0 0
145 7 1 6.01485296334404 -50.672819426923276 -3.0513486750792254 0 0 0
146 7 1 3.639544599899722 -55.05872355250383 -3.380103265142452 0 0 0
147 7 1 2.993820136631271 -54.2678450006052 1.5203040067882228 0 0 0
148 7 1 4.1625807835944215 -50.192554171687846 4.177434683800598 0 0 0
149 7 1 9.041989488568603 -50.00442484359928 5.304848516464432 0 0 0
150 7 1 12.19006485295175 -49.24740043457041 1.4953064784665457 0 0 0
151 7 1 16.48961697459781 -51.62812344259032 2.4759113057410786 0 0 0
152 7 1 19.437911763309003 -49.05421277333073 -0.6325683322668283 0 0 0
153 7 1 20.77000880773946 -44.258468640693195 -0.03304989950954962 0 0 0
154 7 1 17.94389264320523 -40.517402573204066 1.7293111311355602 0 0 0
155 7 1 19.804680703399058 -37.018183088898994 4.772795194535419 0 0 0
156 7 1 24.65614084129122 -37.6779817496777 5.756784785986994 0 0 0
157 7 1 27.434295407564363 -41.2274748903743 3.5669747653282116 0 0 0
158 7 1 26.6052148592846 -42.08080461581149 8.420097461290666 0 0 0
159 7 1 28.976536322042037 -38.484345794049645 10.935250058259697 0 0 0
160 7 1 27.105219051809698 -35.06764011727435 14.072629155369697 0 0 0
161 7 1 24.760407192283054 -30.772978286465367 12.983408964006856 0 0 0
162 7 1 26.75054483469671 -26.240526006365002 12.384959527511128 0 0 0
163 7 1 29.30220205086222 -24.92855744381906 8.296368395603224 0 0 0
164 7 1 30.161198595808074 -28.47988846158382 4.906717148896291 0 0 0
165 7 1 32.18787026350719 -33.0000214185283 4.224377343056645 0 0 0
166 7 1 29.158847426376383 -33.8535741610694 0.3527375016005436 0 0 0
167 7 1 30.41284234081695 -33.61616499512175 -4.48299940479275 0 0 0
168 7 1 27.70303969024664 -34.173493065947035 -8.622343831142985 0 0 0
169 8 1 51.152263553916015 -32.5667291420933 -25.84448842863558 0 0 0
170 8 1 49.30113327869837 -33.785223453194874 -30.326109068513958 0 0 0
171 8 1 53.053643961712254 -35.97137449474102 -32.762880050652875 0 0 0
172 8 1 55.150983550868176 -31.760671716002612 -34.445519445559846 0 0 0
173 8 1 60.13484728751786 -31.762654644777157 -33.937655311984855 0 0 0
174 8 1 62.363828959471476 -27.482644273260753 -32.589489883811716 0 0 0
175 8 1 65.35218748916307 -27.475995656183052 -28.581505421335358 0 0 0
176 8 1 64.42050001219573 -24.68321215847078 -24.550557059839335 0 0 0
177 8 1 60.473845775982596 -21.613579662368856 -24.680529044936122 0 0 0
178 8 1 58.638340506812256 -20.433694677045892 -29.164246592879998 0 0 0
179 8 1 54.13162580162887 -18.264120722524055 -29.252307110090108 0 0 0
180 8 1 53.69041645098784 -14.002081618282915 -26.65971138651563 0 0 0
181 8 1 49.64936686361679 -12.305847516610037 -24.249192854369582 0 0 0
182 8 1 49.02096204270008 -11.977609658252845 -19.315883742074853 0 0 0
183 8 1 52.630694362066876 -12.554700307059178 -15.917651376245438 0 0 0
184 8 1 55.68767206187789 -16.51390418917655 -16.003089270738712 0 0 0
185 8 1 53.37445889400624 -17.211716529445752 -11.619303902333286 0 0 0
186 8 1 53.80082679661538 -15.702806091070215 -6.867129663157144 0 0 0
187 8 1 57.294156656315124 -18.138148792295837 -4.2528191013027765 0 0 0
188 8 1 54.98391804228993 -22.496800539025003 -5.143921956961407 0 0 0
189 8 1 56.187807702653885 -21.356497685648584 -0.4252355671755623 0 0 0
190 8 1 52.54517941060564 -21.150639257095655 2.9900367302880966 0 0 0
191 8 1 47.81906480603254 -19.77970045458185 2.0566982646933383 0 0 0
192 8 1 45.11069588679379 -19.136113217623326 6.176594341141083 0 0 0
193 9 1 17.366488672886135 64.33776221201913 70.36052429312838 0 0 0
194 9 1 21.614627480778154 62.229401259457916 68.77724942793185 0 0 0
195 9 1 22.17717400885499 58.436184240016814 71.9969166784606 0 0 0
196 9 1 21.812438562233126 63.28577343839609 70.8275671401642 0 0 0
197 9 1 19.229508914677325 64.5105145407743 66.73045626169872 0 0 0
198 9 1 20.913501826722282 63.57230368247937 62.10404304589406 0 0 0
199 9 1 25.068803351210292 65.38074480790831 59.99975858890855 0 0 0
200 9 1 28.753990863135257 62.55897008821242 58.122078560945766 0 0 0
201 9 1 27.8717189112336 60.98031301696548 53.44091675189017 0 0 0
202 9 1 27.188602549389728 62.38496956928759 48.69562536908627 0 0 0
203 9 1 27.839157369751547 59.46102163487424 44.689149210692065 0 0 0
204 9 1 24.538670554492384 63.006262461241676 45.97580197355222 0 0 0
205 9 1 25.811820932609393 64.85206241440491 50.44531855921889 0 0 0
206 9 1 25.5290309904736 62.266524034820264 54.7075527630312 0 0 0
207 9 1 25.123183390390125 60.16560586227337 59.230376043039286 0 0 0
208 9 1 24.907489687167867 59.90976454094394 64.22636095666752 0 0 0
209 9 1 25.584188622448394 63.45815376193775 67.70671056282964 0 0 0
210 9 1 24.07849079063425 62.66790299283346 72.42494550276302 0 0 0
211 9 1 26.02819463693814 66.06421097674419 -74.5148545874579 0 0 1
212 9 1 26.820852313887954 70.48924890434469 73.26160431919288 0 0 0
213 9 1 31.557230285027302 71.73183257376388 72.27993917132184 0 0 0
214 9 1 32.73587011688228 -73.66112711715684 70.74489596974013 0 1 0
215 9 1 33.60377568857308 -73.91897180872738 65.83910382354952 0 1 0
216 9 1 36.916159512633385 73.22085187938296 63.43702116765732 0 0 0
217 10 1 19.863216613592854 -35.23228876401846 -3.4223278352670548 0 0 0
218 10 1 21.053025295049707 -30.51814985293442 -2.1675035855691647 0 0 0
219 10 1 17.389878854856434 -27.295163016402768 -1.0628074969754806 0 0 0
220 10 1 13.870887727472223 -28.91666090656731 2.0868844630923604 0 0 0
221 10 1 13.15655792107863 -27.309689258939038 6.755649058880522 0 0 0
222 10 1 10.708301188106503 -29.49097371668016 10.500661932621412 0 0 0
223 10 1 12.252413009462927 -32.46966769192993 14.223012466940247 0 0 0
224 10 1 16.186360686181374 -35.06131407854599 15.890992352003536 0 0 0
225 10 1 19.35543411333471 -33.38025780288777 12.395008611537762 0 0 0
226 10 1 19.80392223957348 -36.4011956518592 8.447802730462527 0 0 0
227 10 1 20.26718346418565 -40.497475618787064 5.566631904409718 0 0 0
228 10 1 21.98797978382396 -41.098122009270895 0.9006315198004273 0 0 0
229 10 1 20.46107429972315 -38.61127014196089 -3.1632265130016606 0 0 0
230 10 1 15.733163849714117 -39.13027276372514 -4.76708686954926 0 0 0
231 10 1 15.347919836734732 -38.929119661811136 -9.74588302732262 0 0 0
232 10 1 18.188947824404025 -41.69122401470615 -12.798089613092571 0 0 0
233 10 1 20.09044978895396 -46.22324328144519 -11.88007267588683 0 0 0
234 10 1 23.300427846299385 -44.77794355724831 -15.43075514667688 0 0 0
235 10 1 22.9120851863358 -40.09400859128945 -17.1383631122439 0 0 0
236 10 1 23.129406921700436 -36.44839529785723 -13.73094446430212 0 0 0
237 10 1 21.357906613609842 -37.02892179216017 -9.088582200973391 0 0 0
238 10 1 23.694787061700083 -34.27287629110015 -5.631008200787491 0 0 0
239 10 1 25.63025829021265 -29.827332359397182 -6.791172314019377 0 0 0
240 10 1 22.801401912172977 -26.520732428722262 -9.272834545576444 0 0 0
241 11 1 14.031431742946069 28.671644663399775 -71.61419605508837 0 0 0
242 11 1 12.034505830848872 29.221969501649497 -67.06462235549725 0 0 0
243 11 1 7.493188599878508 27.250719730461967 -66.46054903868115 0 0 0
244 11 1 6.382617489154043 25.520216072802143 -61.89196608040663 0 0 0
245 11 1 10.907521930997973 23.691143409266076 -62.976170543182775 0 0 0
246 11 1 11.622104461806444 18.776527088343002 -62.380450993896886 0 0 0
247 11 1 14.996270847869155 20.868748358184604 -59.3286104868107 0 0 0
248 11 1 17.207415247636817 25.139917299363276 -60.63386688352039 0 0 0
249 11 1 20.622590712607163 24.825946700121946 -64.27642142360274 0 0 0
250 11 1 22.066797513943698 29.041199288020962 -66.57484193933361 0 0 0
251 11 1 20.646369196512538 33.76862745095049 -65.81266185428298 0 0 0
252 11 1 17.119332653080647 34.62441416981396 -62.372155378632755 0 0 0
253 11 1 14.818730612314909 39.086755819076174 -62.52106147238764 0 0 0
254 11 1 12.02735058333593 39.60292419262956 -66.63732597284991 0 0 0
255 11 1 8.35439308296202 36.52461700171875 -68.10650787852026 0 0 0
256 11 1 4.02842877961065 39.02616181679538 -68.1019584340533 0 0 0
257 11 1 1.2661962851352655 38.52251149412871 -63.980740583811084 0 0 0
258 11 1 -2.7505625400394536 41.193773922699435 -62.68727753100903 0 0 0
259 11 1 -6.071656061819937 42.304967597263314 -66.24645126718255 0 0 0
260 11 1 -5.590163817131383 41.653888062490196 -71.17980645979054 0 0 0
261 11 1 -1.3460560268789123 41.36280039202104 -73.7966422537106 0 0 0
262 11 1 -0.6457962250822078 43.36914672667372 71.67039774133144 0 0 -1
263 11 1 0.12552831394009445 39.973492829400044 68.07817922601413 0 0 -1
264 11 1 2.288384994201607 36.05259278136799 65.90461681840895 0 0 -1
265 12 1 26.551389065324187 -62.2780579032257 1.857282274571574 0 0 0
266 12 1 27.26390287481199 -57.72771692462682 -0.11792011762922527 0 0 0
267 12 1 26.405670923243733 -53.589472574940785 2.5477710509788807 0 0 0
268 12 1 23.26007236535176 -50.269292243084735 0.5592695865992994 0 0 0
269 12 1 24.029407081017794 -48.69597769093941 -4.124650865996983 0 0 0
270 12 1 21.683003677452106 -44.791076257678725 -6.172942655451536 0 0 0
271 12 1 16.726600469507133 -44.240633497852755 -5.685474550955334 0 0 0
272 12 1 14.038235994314391 -40.18275212001542 -6.785868064750446 0 0 0
273 12 1 13.088296617025733 -36.44169299156473 -3.608557137889875 0 0 0
274 12 1 16.106413683842703 -35.7257046465598 0.33205914287113103 0 0 0
275 12 1 14.49249857609091 -37.70817927432339 4.61121215071681 0 0 0
276 12 1 10.39088580470397 -39.23944114380242 7.052368367809635 0 0 0
277 12 1 10.133332665955749 -44.223423133270884 7.25851099177504 0 0 0
278 12 1 6.286000959796496 -41.06395522015197 7.586972854430783 0 0 0
279 12 1 1.4121160553334846 -41.930649441800675 6.890751275067927 0 0 0
280 12 1 -0.39221437272344417 -42.09102661394073 2.236889562379659 0 0 0
281 12 1 -2.8255320281708123 -38.23002469653435 0.1834041203658785 0 0 0
282 12 1 -2.0728063289510317 -33.58904509238281 1.8422716531358674 0 0 0
283 12 1 2.4661595691328557 -31.506018047785126 1.966879734434272 0 0 0
284 12 1 4.571036748847192 -31.831051815068932 -2.555446820966509 0 0 0
285 12 1 9.472635045630454 -32.81393401094104 -2.7994940789610467 0 0 0
286 12 1 11.748478740495074 -35.530865880325806 0.7422879104930757 0 0 0
287 12 1 7.007353388816483 -37.14501702892362 0.5595569152704769 0 0 0
288 12 1 4.529451670890836 -36.16921735853687 -3.6701226483293823 0 0 0
289 13 1 50.81525444911824 8.540828163407312 -30.7357364534978 0 0 0
290 13 1 49.440780485698156 9.181949828898553 -25.961980916073102 0 0 0
291 13 1 47.21142460962565 5.875687886612184 -22.94591828908731 0 0 0
292 13 1 49.145982629566305 1.7132660394802883 -20.952872387788837 0 0 0
293 13 1 46.525857301949756 5.613538679116246 -19.180408683846828 0 0 0
294 13 1 41.647899664026895 5.159339795420507 -18.25885652400322 0 0 0
295 13 1 40.96071942245047 1.9994953184058915 -14.44557978063962 0 0 0
296 13 1 39.55006982615883 0.5799701934628274 -9.852467748105767 0 0 0
297 13 1 35.80790206359002 3.8841974566848165 -9.667471444438348 0 0 0
298 13 1 34.69629515891077 6.537865073227437 -13.771429430627897 0 0 0
299 13 1 31.12229700955011 10.043768420750524 -13.511753647388765 0 0 0
300 13 1 31.798467335624522 14.142205997832235 -10.709922535490847 0 0 0
301 13 1 27.815886562603325 16.161793815390013 -8.471341731729495 0 0 0
302 13 1 27.193310162784883 16.054993407861602 -3.529035309382948 0 0 0
303 13 1 29.17125815474735 12.173776512039936 -1.0872217894396101 0 0 0
304 13 1 27.88737290703088 16.807908367206693 0.2843006949882749 0 0 0
305 13 1 27.70287397639528 20.238831355353085 -3.3225791968245773 0 0 0
306 13 1 25.71573746149035 24.810901428885884 -2.835981999652219 0 0 0
307 13 1 27.3590204943757 28.232639502437365 -6.084284857708781 0 0 0
308 13 1 29.7167791633796 32.07310446626089 -3.937871608391376 0 0 0
309 13 1 28.609392401703076 34.01027340855194 0.5245738807092266 0 0 0
310 13 1 31.626211804281695 36.71965797765128 3.467217614052359 0 0 0
311 13 1 29.397436473438205 39.25229220860045 7.155702208206975 0 0 0
312 13 1 25.68665614216833 42.61794141469184 7.287633241047672 0 0 0
313 14 1 31.40660380863129 -5.402667489041491 -2.3421613434951496 0 0 0
314 14 1 32.41116036227247 -3.7024026545012703 2.2527626349623233 0 0 0
315 14 1 29.081144357832073 -0.3756806148836773 3.952203725540869 0 0 0
316 14 1 27.841221706320894 -0.053790141761368204 8.799703735563071 0 0 0
317 14 1 26.5336746886868 4.539414500222776 10.277854103529563 0 0 0
318 14 1 30.464607672781014 7.5998531325056575 10.324380179577076 0 0 0
319 14 1 34.67925140315393 7.050773841280858 12.957253583943327 0 0 0
320 14 1 35.479584633794786 8.97565959613243 17.499522046531737 0 0 0
321 14 1 31.153121300266122 9.98269542755881 19.810542835527343 0 0 0
322 14 1 28.91368984756548 14.47096244992349 19.49035828738441 0 0 0
323 14 1 27.334509833835867 17.46316842319098 15.789184356002337 0 0 0
324 14 1 27.571179660473646 16.111447262581493 10.990840720129327 0 0 0
325 14 1 28.939830127004115 20.80079808028802 10.0566721664499 0 0 0
326 14 1 26.526243745559768 23.25660922791205 6.406411006800951 0 0 0
327 14 1 24.060380937462753 20.27060217673514 3.211442713858034 0 0 0
328 14 1 22.013641632448255 19.720123565871475 7.759687811909998 0 0 0
329 14 1 19.10972592713145 23.26335818130387 9.7386912418293 0 0 0
330 14 1 20.292312629058898 28.0169130934205 10.819886237002734 0 0 0
331 14 1 24.963008133747962 29.77310498434315 10.212732242684169 0 0 0
332 14 1 27.608339033303906 28.710847695493868 6.103703225766836 0 0 0
333 14 1 31.169135373481907 31.514725703808338 4.0165325106273855 0 0 0
334 14 1 31.458611045880417 36.216307456730746 5.672027478406889 0 0 0
335 14 1 29.183935748172743 37.518972845325436 9.926506919745918 0 0 0
336 14 1 24.249917509129247 36.85810131792488 10.424239293520543 0 0 0
337 15 1 -72.12641599315901 32.00090828124958 -43.80918338203753 0 0 0
338 15 1 -67.8514631619329 33.861708325829994 -42.02493479051434 0 0 0
339 15 1 -64.05417703317742 35.880927524534286 -44.585237717762894 0 0 0
340 15 1 -62.96550605600882 34.44722581428006 -49.253657553825946 0 0 0
341 15 1 -63.8039376696676 29.602975421003705 -48.389359112267755 0 0 0
342 15 1 -58.85395673022078 29.01413315484973 -48.86236038540134 0 0 0
343 15 1 -56.3020248397713 32.359008807165296 -51.56387463275985 0 0 0
344 15 1 -51.97256865551344 31.593330267544786 -53.92014593531078 0 0 0
345 15 1 -47.76787748173236 30.162540643442483 -51.62961372037486 0 0 0
346 15 1 -46.081603142668854 34.0665913855687 -49.00883561441095 0 0 0
347 15 1 -41.795037086089756 34.14530003708576 -46.45196380692664 0 0 0
348 15 1 -39.42933031483325 38.5196967922673 -45.898545708962104 0 0 0
349 15 1 -40.22002172173596 41.881519511419725 -49.51800875461382 0 0 0
350 15 1 -44.08709949803321 45.029931845238295 -49.17795106393399 0 0 0
351 15 1 -48.43543374867991 45.664528160510955 -51.53998410583283 0 0 0
352 15 1 -50.39404010998102 41.93457394548557 -54.25077822622201 0 0 0
353 15 1 -54.62070804443579 42.12246564281992 -56.891239295403594 0 0 0
354 15 1 -58.16933527286919 38.79604343078671 -55.739497624110314 0 0 0
355 15 1 -61.225716620383096 41.317051992010704 -52.71176382559683 0 0 0
356 15 1 -63.024132011793 45.71181238962738 -54.25841671234346 0 0 0
357 15 1 -66.83223598905833 44.86339368033907 -57.37944903941323 0 0 0
358 15 1 -70.82426583119465 47.78629019591173 -56.623390502220246 0 0 0
359 15 1 -71.06304101130792 52.031755050382074 -59.25222968829522 0 0 0
360 15 1 -68.03104978879792 55.958444231895555 -58.69718686387009 0 0 0
361 16 1 66.6884530162564 -45.50176018898887 -69.350873712469 0 0 0
362 16 1 65.25525977914282 -43.29245923902316 -73.60399213296255 0 0 0
363 16 1 62.98721565946781 -46.426176164389005 73.18949944245551 0 0 -1
364 16 1 58.42101886397916 -46.36260160400083 71.14636537945395 0 0 -1
365 16 1 54.90982792760633 -49.178722863016404 73.31018931482771 0 0 -1
366 16 1 53.66137608610259 -47.94734907571561 -72.01061228439566 0 0 0
367 16 1 54.79745399106375 -51.12245196336401 -68.30106128101488 0 0 0
368 16 1 55.579142797190826 -51.55480902109449 -63.371846778219634 0 0 0
369 16 1 53.5796063935675 -55.424898150532684 -60.913575063443865 0 0 0
370 16 1 53.97147968224806 -55.577963812089266 -55.929528710425515 0 0 0
371 16 1 49.625315308232004 -55.727414165864964 -53.457385699725464 0 0 0
372 16 1 48.67005544346206 -59.83575096495508 -50.77510786771546 0 0 0
373 16 1 50.768586838767064 -64.18851427387892 -52.04638755985815 0 0 0
374 16 1 50.63275726804014 -62.91241645044573 -56.87481015220203 0 0 0
375 16 1 46.831417608392286 -59.91600720410853 -58.09080438245397 0 0 0
376 16 1 47.18745649142727 -55.26674602865462 -59.90634869654515 0 0 0
377 16 1 51.8190423040147 -54.09629870426222 -61.417172963823866 0 0 0
378 16 1 53.72331497423676 -56.12182333234912 -65.58793782015032 0 0 0
379 16 1 53.15699783684664 -60.382970029670616 -68.14729864872774 0 0 0
380 16 1 49.288752283228874 -61.229509327972174 -71.216666722425 0 0 0
381 16 1 46.21774625057971 -65.00466050563357 -70.08951746926546 0 0 0
382 16 1 45.28192463689038 -64.15559223807753 -65.25748786250074 0 0 0
383 16 1 47.967956961760166 -66.05819148100585 -61.49736608338841 0 0 0
384 16 1 47.53555076379409 -65.9391120077475 -56.525104914073694 0 0 0
385 17 1 7.682996242328073 32.00882889780232 42.348819367443696 0 0 0
386 17 1 8.569159738831502 27.24089737657542 43.5347043977243 0 0 0
387 17 1 3.930485954968077 27.290958651622816 41.65002313086285 0 0 0
388 17 1 -0.11380298031536995 26.677036008968727 44.515487243009574 0 0 0
389 17 1 -1.0949384238177657 22.15227299794769 46.421278866709585 0 0 0
390 17 1 -0.14338594719548325 27.07378402412705 46.5778453981429 0 0 0
391 17 1 -3.7304240274251015 29.913286971728283 44.57396273174412 0 0 0
392 17 1 -2.5562794769047343 33.67562486484893 41.507992816524435 0 0 0
393 17 1 -0.9503148331545361 37.81079110642406 43.85502547100434 0 0 0
394 17 1 3.6618032649764416 37.268867119584726 45.65656369487519 0 0 0
395 17 1 5.737515649247811 33.1015161334694 47.44392872884629 0 0 0
396 17 1 4.816863492259188 32.71398360219683 52.34666799324157 0 0 0
397 17 1 4.139120957118422 28.10025546225917 54.15814630700558 0 0 0
398 17 1 5.580172609131452 27.851309375513395 58.93990009226661 0 0 0
399 17 1 8.257923196808775 24.08112376499824 60.86986367396912 0 0 0
400 17 1 4.613079867839019 22.961256293197522 57.618352209412905 0 0 0
401 17 1 5.793378229810557 24.425232708228805 52.977074673258585 0 0 0
402 17 1 5.7557646850760165 20.879025582721923 49.430838595883344 0 0 0
403 17 1 7.807420109266303 19.03480496229153 45.25149121544092 0 0 0
404 17 1 4.638964087214276 15.21763749581443 45.848357463600095 0 0 0
405 17 1 4.151423270149536 17.711384692501312 50.16715359762097 0 0 0
406 17 1 6.280248185665059 16.42438599705207 54.52083684972288 0 0 0
407 17 1 10.83686993062146 14.60867101850532 55.495123392382766 0 0 0
408 17 1 14.987994365538924 16.480340650504232 53.434218016335336 0 0 0
409 18 1 68.12178472702377 -25.86365729233418 -18.0729883690218 0 0 0
410 18 1 67.47449107310229 -24.79888771875015 -13.222795221246898 0 0 0
411 18 1 67.8904464408227 -20.1364147225377 -11.432173944571701 0 0 0
412 18 1 64.05486151103526 -17.15180346694479 -10.146917036655452 0 0 0
413 18 1 63.84606191142845 -12.426105394876565 -11.792677171754285 0 0 0
414 18 1 60.28344937724273 -11.723122235195724 -15.224095230768064 0 0 0
415 18 1 57.59488320497084 -7.734951526854061 -16.58394463970498 0 0 0
416 18 1 59.63304859703345 -3.7855630187529528 -18.85927059826229 0 0 0
417 18 1 57.55575514639645 0.6459710193526718 -19.813100886929362 0 0 0
418 18 1 53.42519893705372 2.395912752178461 -17.621099720076458 0 0 0
419 18 1 51.101830524605035 6.144019459112187 -19.986271369845227 0 0 0
420 18 1 51.11372161650087 7.172690720579922 -24.884283601575042 0 0 0
421 18 1 51.531303185734885 11.924533402075681 -26.382103633328853 0 0 0