ITEM: TIMESTEP
0
ITEM: NUMBER OF ATOMS
25088
ITEM: BOX BOUNDS xy xz yz pp pp pp
-59.2208 59.2208 0
-59.2208 59.2208 0
-59.2208 59.2208 0
ITEM: ATOMS id mol xu yu zu cry_stems total_neighbor_stems
1 1 48.0799 15.8117 -31.1518 0 0
2 1 48.9071 14.5036 -33.1367 0 0
3 1 51.4983 15.7029 -32.6308 0 0
4 1 53.2991 17.41 -32.2487 0 0
5 1 55.4923 15.6714 -33.6039 0 0
6 1 57.3841 14.5075 -34.5693 0 0
7 1 57.197 15.2391 -37.5395 0 0
8 1 54.8774 15.6063 -38.2957 0 0
9 1 55.3241 18.4257 -39.435 0 0
10 1 53.6168 19.9328 -38.4216 0 0
11 1 51.5697 18.5127 -40.385 0 0
12 1 49.3481 17.9234 -41.4701 0 0
13 1 48.2744 19.1282 -38.8787 0 0
14 1 46.0153 19.737 -39.485 0 0
15 1 45.3984 19.4526 -36.4269 0 0
16 1 45.0186 18.9738 -34.1179 0 0
17 1 47.4847 20.3576 -32.7105 0 0
18 1 49.2193 20.7971 -34.1872 0 0
19 1 50.9282 20.5061 -31.5905 40 40
20 1 49.1365 20.1259 -29.9331 39 39
21 1 50.3781 17.6258 -28.7815 34 34
22 1 52.0324 16.3021 -27.6451 34 34
23 1 49.8932 15.4719 -25.4712 34 34
24 1 48.285 14.5151 -27.1669 42 42
25 1 46.0152 15.1035 -24.9969 41 41
26 1 44.3208 13.8886 -26.2877 44 44
27 1 45.7788 11.154 -26.2996 46 46
28 1 46.3408 10.691 -24.0765 41 41
29 1 49.3523 10.3006 -24.7719 33 33
30 1 50.0128 7.99957 -24.9466 29 29
31 1 51.9637 8.34501 -27.3747 27 27
32 1 51.403 6.62472 -28.9007 0 0
33 1 48.3469 7.35303 -28.4673 0 0
34 1 47.2378 6.06133 -26.7126 0 0
35 1 44.7195 5.59216 -28.6293 0 0
36 1 42.9309 5.61927 -30.3609 0 0
37 1 43.7036 8.58678 -30.3946 0 0
38 1 44.4627 10.9669 -29.9543 0 0
39 1 43.7559 11.9733 -32.669 0 0
40 1 43.3888 12.8377 -34.8679 0 0
41 1 45.3035 10.9204 -35.9697 0 0
42 1 46.6803 9.37411 -37.0735 0 0
43 1 45.2299 9.56942 -39.8019 0 0
44 1 44.1136 9.49116 -42.0669 0 0
45 1 46.1359 11.9402 -42.8591 0 0
46 1 47.3656 14.1273 -43.3121 0 0
47 1 44.8733 15.4943 -42.017 0 0
48 1 45.2996 14.9312 -39.7632 0 0
49 1 42.2956 15.57 -39.0051 0 0
50 2 28.3624 -31.419 -8.40452 0 0
51 2 30.5277 -30.3291 -8.59867 0 0
52 2 29.6139 -28.2008 -6.76105 0 0
53 2 27.8677 -26.7188 -7.61389 0 0
54 2 27.2382 -26.528 -4.51579 0 0
55 2 26.8663 -26.4989 -2.0655 0 0
56 2 28.2585 -23.7586 -1.95373 0 0
57 2 28.8595 -22.8917 -4.13459 0 0
58 2 26.4835 -21.0195 -3.63289 0 0
59 2 27.0717 -20.0535 -1.47107 0 0
60 2 24.6152 -21.7183 -0.407942 0 0
61 2 22.3823 -22.6586 0.228752 0 0
62 2 23.7733 -24.8429 1.83268 0 0
63 2 21.8369 -26.153 2.63313 0 0
64 2 20.7253 -26.1386 -0.15431 0 0
65 2 18.7174 -24.9588 0.384088 0 0
66 2 16.7786 -26.7492 -1.39142 0 0
67 2 14.8976 -27.6696 -0.135298 0 0
68 2 13.3813 -28.4384 -2.56617 26 26
69 2 11.1091 -29.1433 -2.00096 35 35
70 2 9.79451 -26.2813 -1.81518 30 30
71 2 7.57965 -26.5562 -0.72878 31 31
72 2 9.28448 -27.1817 1.65268 32 32
73 2 10.8213 -27.806 3.44061 38 38
74 2 9.73846 -30.6324 3.85003 32 32
75 2 9.67433 -31.1368 6.15909 28 28
76 2 12.4143 -32.5269 6.26979 25 25
77 2 14.5312 -33.9179 6.48945 27 27
78 2 14.204 -36.4636 4.77666 27 27
79 2 13.7149 -38.3768 3.31244 25 25
80 2 10.8503 -38.9187 4.22137 21 21
81 2 10.4818 -36.7503 5.15426 0 0
82 2 10.4585 -35.0999 2.52678 0 0
83 2 8.51333 -35.8232 1.23385 0 0
84 2 8.65097 -33.5249 -0.68553 0 0
85 2 6.72434 -32.3263 0.2055 0 0
86 2 6.28517 -34.3715 2.20503 0 0
87 2 5.32402 -33.2896 4.16385 0 0
88 2 2.8521 -34.8557 5.22612 0 0
89 2 1.27056 -36.4699 5.89154 0 0
90 2 2.96495 -37.9866 7.92133 0 0
91 2 5.1337 -37.098 8.52072 0 0
92 2 4.13086 -34.5993 10.1334 0 0
93 2 2.58461 -35.6391 11.7437 0 0
94 2 2.91387 -33.1981 13.7301 0 0
95 2 3.15343 -31.3625 15.2698 0 0
96 2 0.649245 -30.1987 14.1419 0 0
97 2 -0.938968 -31.5413 15.3882 0 0
98 2 0.826638 -31.5662 17.852 0 0
99 3 18.5777 -50.018 -3.62905 0 0
100 3 18.359 -52.3827 -4.37861 0 0
101 3 19.2964 -53.5169 -1.73755 0 0
102 3 18.5332 -52.0959 0.045733 0 0
103 3 15.6762 -51.7136 -0.951194 0 0
104 3 14.0848 -53.1218 0.280705 0 0
105 3 11.4439 -51.5168 -0.451501 0 0
106 3 9.80179 -52.5903 0.822252 0 0
107 3 8.31215 -52.5821 -1.94342 0 0
108 3 6.71106 -54.3898 -1.48889 0 0
109 3 5.66312 -53.7699 1.35146 0 0
110 3 5.14914 -53.477 3.64629 0 0
111 3 3.98502 -50.7297 3.23237 0 0
112 3 3.23644 -48.4719 3.1593 0 0
113 3 5.7528 -47.8382 4.78422 0 0
114 3 6.62275 -45.9249 3.49304 0 0
115 3 6.69826 -47.2831 0.935067 0 0
116 3 7.21116 -48.6898 -0.803893 0 0
117 3 4.71355 -47.2194 -2.16585 21 21
118 3 3.6192 -48.3785 -3.90582 23 23
119 3 2.34418 -50.4596 -2.03007 30 30
120 3 1.86326 -52.7552 -2.74507 30 30
121 3 0.262458 -53.6601 -0.430522 38 38
122 3 0.571927 -56.0332 -0.330989 43 43
123 3 0.999696 -56.3738 2.78837 56 56
124 3 2.4091 -58.3649 2.91973 51 51
125 3 1.61485 -59.2069 5.70333 56 56
126 3 1.12026 -59.185 8.03798 54 54
127 3 2.51427 -61.8196 9.10393 51 51
128 3 0.806772 -63.3977 8.46994 50 50
129 3 0.971829 -64.9602 10.9912 45 45
130 3 3.42218 -64.817 11.1547 0 0
131 3 3.63831 -67.094 13.1988 0 0
132 3 2.00385 -66.3889 14.7962 0 0
133 3 4.29775 -66.8894 16.7053 0 0
134 3 6.1801 -67.5059 18.3048 0 0
135 3 6.10438 -64.7246 19.6255 0 0
136 3 8.47504 -64.0696 20.1669 0 0
137 3 8.83838 -66.7534 21.5947 0 0
138 3 11.1518 -67.4851 21.7055 0 0
139 3 11.5121 -65.0433 23.8983 0 0
140 3 9.24441 -64.6085 24.2897 0 0
141 3 9.0429 -67.3943 25.5505 0 0
142 3 9.5061 -69.4465 26.9576 0 0
143 3 11.4002 -67.7665 28.7347 0 0
144 3 13.3356 -67.1916 30.1342 0 0
145 3 11.4826 -66.4691 32.5056 0 0
146 3 9.45439 -66.4064 31.1888 0 0
147 3 8.93509 -69.1286 32.6199 0 0
148 4 -3.30394 -13.2795 15.6011 0 0
149 4 -2.76449 -11.0098 16.0484 0 0
150 4 -1.29106 -10.2799 13.4069 0 0
151 4 -0.190786 -9.56835 11.3009 0 0
152 4 0.0101075 -12.4994 10.4837 0 0
153 4 -0.179624 -14.9539 10.3228 0 0
154 4 0.872245 -15.7808 13.0672 0 0
155 4 -0.604034 -16.0715 14.8762 0 0
156 4 -0.425306 -19.0891 14.9666 0 0
157 4 -2.54466 -20.1044 15.0787 0 0
158 4 -3.69776 -18.4154 12.7841 0 0
159 4 -4.46905 -17.1149 10.8661 0 0
160 4 -5.90818 -15.7711 13.2753 0 0
161 4 -7.3407 -14.669 14.869 0 0
162 4 -6.67199 -16.9559 16.6937 0 0
163 4 -5.53326 -18.7722 17.7955 0 0
164 4 -2.94239 -17.1682 18.3182 0 0
165 4 -2.98201 -15.9552 20.4064 0 0
166 4 -0.00995934 -15.6429 21.2708 44 44
167 4 1.18394 -14.9473 19.3302 44 44
168 4 3.20167 -12.7645 20.4302 47 47
169 4 4.57157 -13.4964 22.2322 50 50
170 4 3.38241 -11.4052 24.2419 48 48
171 4 3.59301 -12.4965 26.4315 47 47
172 4 1.2033 -14.6083 26.1108 41 41
173 4 0.147339 -16.7755 26.2073 37 37
174 4 -2.23869 -15.4738 24.7675 38 38
175 4 -4.28949 -16.3783 25.8004 34 34
176 4 -5.96031 -13.7762 25.141 34 34
177 4 -7.1664 -13.0737 27.0873 24 24
178 4 -5.6842 -10.2956 27.3605 23 23
179 4 -7.20713 -8.61512 26.5352 0 0
180 4 -8.36981 -8.36099 29.2471 0 0
181 4 -10.7081 -7.88863 28.9538 0 0
182 4 -11.3199 -7.20866 31.8437 0 0
183 4 -11.5872 -6.68745 34.1308 0 0
184 4 -11.4124 -9.67199 34.8289 0 0
185 4 -11.3445 -12.1327 34.955 0 0
186 4 -8.40372 -11.7828 36.0603 0 0
187 4 -5.94379 -11.2272 36.4377 0 0
188 4 -6.84893 -10.2206 39.2627 0 0
189 4 -6.36635 -9.2428 41.5103 0 0
190 4 -9.41219 -8.82452 41.8199 0 0
191 4 -10.5347 -9.70022 39.8024 0 0
192 4 -12.5771 -11.3938 41.2032 0 0
193 4 -13.4141 -10.2258 43.0809 0 0
194 4 -16.2447 -11.2198 42.5859 0 0
195 4 -18.6651 -11.6515 42.3025 0 0
196 4 -19.8344 -11.9894 45.185 0 0
197 5 -11.9124 55.9979 0.120558 0 0
198 5 -12.1145 57.266 -1.97322 0 0
199 5 -12.5122 54.4473 -3.32687 0 0
200 5 -13.1745 52.2329 -4.2089 0 0
201 5 -11.9063 52.9454 -6.86656 0 0
202 5 -10.3375 54.8852 -6.87661 0 0
203 5 -8.0511 53.0552 -5.79739 0 0
204 5 -7.90553 53.0933 -3.31977 0 0
205 5 -6.75894 55.7816 -2.15467 0 0
206 5 -7.38429 55.3492 0.0809052 0 0
207 5 -5.42858 57.3988 1.26258 0 0
208 5 -3.21309 56.3633 1.42196 0 0
209 5 -4.06711 53.3856 0.995624 0 0
210 5 -4.43592 51.0219 1.1062 0 0
211 5 -3.30909 50.4498 -1.75807 0 0
212 5 -2.0891 49.5969 -3.67012 0 0
213 5 0.745407 49.9608 -2.55339 0 0
214 5 1.31496 52.1269 -1.44949 0 0
215 5 4.09102 52.4028 -2.60095 22 22
216 5 6.24881 51.9154 -3.77672 22 22
217 5 6.71807 49.7076 -1.65785 30 30
218 5 4.6055 48.5607 -1.3808 33 33
219 5 6.24236 46.5589 0.405775 40 40
220 5 6.14542 47.2217 2.74328 41 41
221 5 9.1615 47.551 2.73798 45 45
222 5 10.5981 45.9863 1.5093 46 46
223 5 10.9919 47.8388 -0.752427 37 37
224 5 13.089 49.0981 -0.450557 34 34
225 5 15.3274 46.9396 0.174024 38 38
226 5 17.3738 45.6338 0.227354 35 35
227 5 19.1154 47.6398 1.6467 42 42
228 5 20.3789 46.9959 3.63377 0 0
229 5 22.0362 49.6654 3.90164 0 0
230 5 21.6245 50.5776 1.75447 0 0
231 5 21.6439 53.5535 2.40491 0 0
232 5 21.2885 55.857 3.01976 0 0
233 5 24.1913 55.6706 4.03522 0 0
234 5 26.3279 55.0908 5.23941 0 0
235 5 25.4464 56.2147 8.05354 0 0
236 5 27.1666 57.5271 9.15713 0 0
237 5 28.6189 58.363 6.45516 0 0
238 5 30.3623 58.958 5.14617 0 0
239 5 28.4806 58.1269 2.89687 0 0
240 5 29.8595 57.8894 0.906883 0 0
241 5 31.4849 60.4104 1.81134 0 0
242 5 32.8704 60.9823 -0.177523 0 0
243 5 30.6335 60.1281 -1.88754 0 0
244 5 29.6043 59.2495 -3.92547 0 0
245 5 30.8032 61.4339 -5.61974 0 0
246 6 9.40317 -64.2685 37.736 0 0
247 6 10.7593 -63.1022 39.3222 0 0
248 6 13.3835 -64.2901 38.3838 0 0
249 6 15.556 -65.3472 38.6905 0 0
250 6 16.6013 -63.4883 36.5571 0 0
251 6 17.9868 -62.0367 35.2066 0 0
252 6 17.0266 -59.4867 36.8241 0 0
253 6 16.3579 -57.385 37.8346 0 0
254 6 19.216 -57.4431 38.8804 0 0
255 6 19.6612 -55.4104 40.2029 0 0
256 6 22.2136 -54.2279 38.9822 0 0
257 6 23.9151 -53.0682 37.7558 0 0
258 6 22.3693 -54.1487 35.4849 0 0
259 6 21.3279 -54.5884 33.341 0 0
260 6 18.6421 -53.2133 33.8442 0 0
261 6 17.4798 -51.5997 32.3173 0 0
262 6 14.7896 -51.4698 34.1524 0 0
263 6 12.8079 -51.4689 32.6149 0 0
264 6 13.1812 -48.6308 31.8563 28 28
265 6 13.0639 -46.2314 32.0265 26 26
266 6 12.3245 -45.7486 29.1791 29 29
267 6 11.518 -45.1294 27.0619 26 26
268 6 13.403 -47.3355 26.0065 25 25
269 6 15.7307 -46.7861 26.2915 20 20
270 6 16.36 -49.5895 25.2671 19 19
271 6 16.6725 -49.0692 23.04 19 19
272 6 18.3838 -46.7951 24.0643 18 18
273 6 19.5348 -44.9126 25.1868 20 20
274 6 17.5169 -42.7993 24.6357 22 22
275 6 15.9598 -40.7631 24.2898 28 28
276 6 15.087 -41.1414 27.2124 30 30
277 6 14.5542 -41.2622 29.6692 0 0
278 6 12.3568 -39.3086 28.6195 0 0
279 6 10.9019 -37.5539 27.7201 0 0
280 6 12.0318 -37.485 24.7409 0 0
281 6 12.9013 -35.305 23.932 0 0
282 6 12.292 -35.7836 20.9317 0 0
283 6 10.1252 -36.5133 20.0909 0 0
284 6 8.7961 -34.0667 21.2777 0 0
285 6 7.69023 -32.0108 21.8971 0 0
286 6 7.61649 -33.052 24.7256 0 0
287 6 5.6221 -31.8658 25.7641 0 0
288 6 4.47375 -31.2752 22.8422 0 0
289 6 3.06618 -30.6601 21.1102 0 0
290 6 4.58933 -27.7286 20.8935 0 0
291 6 5.68317 -25.5632 20.6889 0 0
292 6 2.97163 -24.7594 21.9059 0 0
293 6 2.78333 -25.9333 24.0122 0 0
294 6 -0.00107373 -27.1702 23.3627 0 0
295 7 -9.57294 -50.137 -17.547 0 0
296 7 -10.2795 -48.6244 -15.8521 0 0
297 7 -8.8705 -46.2762 -17.2754 0 0
298 7 -8.18991 -44.3493 -18.706 0 0
299 7 -9.11759 -46.1727 -21.2309 0 0
300 7 -9.90843 -47.7968 -22.8443 0 0
301 7 -7.79977 -49.4686 -21.4576 0 0
302 7 -6.38325 -51.3687 -20.7946 0 0
303 7 -4.93299 -49.7297 -18.43 0 0
304 7 -3.55639 -48.8103 -16.6586 0 0
305 7 -0.918615 -48.274 -18.4448 0 0
306 7 1.34603 -48.1844 -19.487 0 0
307 7 1.31534 -45.4201 -20.9645 0 0
308 7 1.32394 -43.2668 -22.1362 0 0
309 7 2.031 -41.6009 -19.5988 0 0
310 7 -0.0359681 -40.2484 -19.4777 0 0
311 7 -1.26595 -42.6487 -17.9173 0 0
312 7 -2.45252 -44.5289 -16.8628 0 0
313 7 -2.59811 -42.9914 -14.2133 20 20
314 7 -2.46911 -40.6084 -14.4299 22 22
315 7 0.684291 -40.5551 -13.7852 29 29
316 7 1.73532 -39.3612 -15.5948 29 29
317 7 4.44556 -38.1869 -14.283 32 32
318 7 4.33857 -35.9124 -14.9149 35 35
319 7 1.595 -35.5087 -13.6881 34 34
320 7 1.65524 -34.3858 -11.5406 31 31
321 7 -0.584132 -35.8817 -10.3154 27 27
322 7 0.238217 -37.9212 -9.35374 25 25
323 7 3.23365 -37.7993 -9.50687 29 29
324 7 5.63673 -37.6904 -9.67713 33 33
325 7 5.85997 -34.6588 -9.56103 28 28
326 7 6.68884 -32.3317 -9.76443 0 0
327 7 6.09049 -31.8637 -12.7037 0 0
328 7 5.60033 -31.7147 -15.1685 0 0
329 7 7.4035 -29.2903 -15.731 0 0
330 7 7.47218 -28.7653 -18.0547 0 0
331 7 8.77938 -31.4416 -18.695 0 0
332 7 9.93323 -33.2702 -19.507 0 0
333 7 7.3441 -34.8454 -19.8943 0 0
334 7 5.35993 -36.2522 -20.0656 0 0
335 7 3.38506 -33.9919 -19.481 0 0
336 7 1.09657 -34.7705 -19.9111 0 0
337 7 0.749232 -33.3937 -22.6898 0 0
338 7 0.663584 -32.513 -24.9324 0 0
339 7 3.51803 -31.8763 -24.1462 0 0
340 7 5.60325 -31.0751 -23.0656 0 0
341 7 4.72992 -28.0651 -23.5333 0 0
342 7 2.48671 -28.2658 -22.7114 0 0
343 7 3.49257 -29.6981 -20.1398 0 0
344 8 -46.3827 -42.7481 41.0265 0 0
345 8 -46.932 -42.8096 43.3906 0 0
346 8 -49.6794 -43.7061 42.2377 0 0
347 8 -51.9919 -44.1311 41.8706 0 0
348 8 -52.2839 -46.9052 43.4936 0 0
349 8 -52.6721 -48.8082 45.1036 0 0
350 8 -50.6634 -47.7576 47.1479 0 0
351 8 -49.2419 -47.0493 49.1861 0 0
352 8 -50.4365 -49.4238 50.8904 0 0
353 8 -51.4761 -50.7629 49.1718 0 0
354 8 -53.7953 -48.7123 48.9909 0 0
355 8 -55.1515 -46.6975 48.7747 0 0
356 8 -53.0223 -45.3215 50.4855 0 0
357 8 -51.5192 -43.8303 51.6383 0 0
358 8 -53.248 -41.3792 50.785 0 0
359 8 -54.8811 -39.6157 50.1697 0 0
360 8 -56.9948 -41.145 48.8166 0 0
361 8 -59.0256 -42.3892 48.0641 0 0
362 8 -57.4624 -43.9738 46.0057 22 22
363 8 -56.0324 -42.4749 44.6207 24 24
364 8 -53.3414 -42.273 46.1622 27 27
365 8 -51.1813 -42.526 47.2259 27 27
366 8 -49.7573 -40.1624 45.9482 23 23
367 8 -51.2022 -38.4417 46.1994 15 15
368 8 -51.9993 -38.7959 43.1898 25 25
369 8 -50.177 -38.8816 41.4359 26 26
370 8 -47.6084 -38.1265 43.0794 26 26
371 8 -46.8541 -35.784 42.8124 24 24
372 8 -49.6363 -35.4139 41.3831 24 24
373 8 -51.6781 -34.5051 40.3756 21 21
374 8 -50.6903 -33.1446 37.8783 19 19
375 8 -49.9463 -32.4105 35.6996 0 0
376 8 -48.8284 -35.3483 35.1411 0 0
377 8 -47.7497 -37.4462 34.3996 0 0
378 8 -50.0505 -39.1704 35.7467 0 0
379 8 -51.645 -39.863 37.4143 0 0
380 8 -52.946 -37.0681 37.1204 0 0
381 8 -54.5066 -35.2216 37.3015 0 0
382 8 -56.8857 -36.6388 35.9544 0 0
383 8 -58.7094 -38.1611 35.3476 0 0
384 8 -58.0189 -39.6467 37.8773 0 0
385 8 -57.3115 -40.747 39.8972 0 0
386 8 -56.4659 -38.0829 41.2761 0 0
387 8 -55.6703 -35.8684 42.0382 0 0
388 8 -57.1776 -35.9546 44.6954 0 0
389 8 -59.4923 -36.131 44.2071 0 0
390 8 -60.1434 -36.6611 47.253 0 0
391 8 -61.3382 -36.7672 49.2875 0 0
392 8 -58.3738 -36.5435 50.4658 0 0
393 9 67.2361 44.2836 0.848187 0 0
394 9 66.2825 45.3594 2.77404 0 0
395 9 66.2821 42.6754 4.63873 0 0
396 9 67.0059 40.3641 5.23595 0 0
397 9 67.7018 40.0241 2.28261 0 0
398 9 65.8549 39.7258 0.732989 0 0
399 9 64.3954 37.3172 2.04795 0 0
400 9 62.9074 35.7055 3.03151 0 0
401 9 62.0511 34.8855 0.187777 0 0
402 9 62.7836 32.5368 -0.100207 0 0
403 9 60.1363 31.6998 -1.05836 0 0
404 9 58.3509 33.0697 -0.0661486 0 0
405 9 57.5495 34.1206 -2.87363 0 0
406 9 58.1018 32.7633 -4.7357 0 0
407 9 55.3227 32.764 -5.73834 0 0
408 9 54.6072 30.6079 -6.54927 0 0
409 9 55.6542 29.0978 -3.99921 0 0
410 9 56.7466 27.9346 -2.02851 0 0
411 9 59.455 27.5172 -3.6335 36 36
412 9 61.2203 27.1959 -5.27182 30 30
413 9 60.4076 24.2744 -5.33522 33 33
414 9 59.219 23.86 -3.15443 38 38
415 9 59.086 20.8237 -3.55699 36 36
416 9 58.105 20.0527 -5.65999 33 33
417 9 57.0257 17.525 -4.36716 36 36
418 9 57.2029 18.0696 -2.03856 40 40
419 9 54.323 19.1716 -2.00498 41 41
420 9 54.1318 21.4528 -3.06253 42 42
421 9 56.0658 22.3813 -0.69254 45 45
422 9 54.6434 22.6636 1.23119 49 49
423 9 53.15 24.9504 0.0751229 43 43
424 9 51.9728 26.819 -0.940714 0 0
425 9 51.8837 25.6883 -3.7843 0 0
426 9 51.7786 27.3342 -5.54575 0 0
427 9 52.8879 25.3897 -7.52955 0 0
428 9 54.983 26.3 -7.93903 0 0
429 9 54.2969 25.4864 -11.0634 0 0
430 9 52.9456 25.094 -13.0678 0 0
431 9 55.6785 25.2891 -14.6204 0 0
432 9 55.9858 23.6976 -16.3483 0 0
433 9 54.931 25.5443 -18.4495 0 0
434 9 53.8816 27.4907 -17.2742 0 0
435 9 54.5445 29.1936 -19.8551 0 0
436 9 52.6851 30.6743 -20.5687 0 0
437 9 50.8846 28.2249 -20.9961 0 0
438 9 49.4698 26.1627 -21.1803 0 0
439 9 48.4103 27.0478 -24.0246 0 0
440 9 48.2431 29.459 -24.33 0 0
441 9 46.4634 28.8512 -26.7135 0 0
442 10 40.6092 -10.2522 -2.47967 0 0
443 10 39.2513 -10.7347 -0.585819 0 0
444 10 39.5086 -13.7805 -1.19982 0 0
445 10 41.7151 -14.0408 -2.23699 0 0
446 10 41.4254 -16.8211 -3.17551 0 0
447 10 41.4297 -19.2362 -3.80864 0 0
448 10 40.4196 -20.2202 -1.03356 0 0
449 10 38.6351 -18.7844 -0.16622 0 0
450 10 40.8848 -17.4585 1.37119 0 0
451 10 42.7791 -16.3938 2.33721 0 0
452 10 44.503 -18.3944 0.668108 0 0
453 10 45.2161 -20.3108 -0.497164 0 0
454 10 45.5543 -18.921 -3.16529 0 0
455 10 46.8854 -17.022 -3.01028 0 0
456 10 49.5371 -18.3063 -1.98816 0 0
457 10 50.1306 -17.7409 0.422346 0 0
458 10 51.8575 -15.3055 -0.241919 0 0
459 10 53.0342 -14.9342 1.83026 0 0
460 10 54.6722 -12.7468 0.389344 31 31
461 10 56.8579 -12.8199 1.53769 25 25
462 10 55.7168 -13.3117 4.40809 28 28
463 10 55.2732 -13.6544 6.59924 25 25
464 10 56.6363 -16.4316 6.44986 19 19
465 10 57.1553 -18.5256 5.48329 20 20
466 10 54.3682 -18.1789 3.93266 21 21
467 10 53.2687 -20.2241 4.59447 20 20
468 10 52.159 -19.4418 7.3037 20 20
469 10 51.2474 -18.5016 9.32862 22 22
470 10 48.3501 -18.389 8.59933 22 22
471 10 45.8786 -18.1731 8.10104 24 24
472 10 46.0804 -15.1039 7.9063 26 26
473 10 47.648 -14.7814 9.74781 0 0
474 10 49.3958 -13.5372 7.61238 0 0
475 10 50.6295 -13.0561 5.5076 0 0
476 10 49.2077 -15.5626 4.4123 0 0
477 10 47.681 -17.1954 3.71729 0 0
478 10 47.4682 -14.8843 1.70989 0 0
479 10 47.3015 -13.4179 -0.214786 0 0
480 10 49.4939 -11.2039 0.476717 0 0
481 10 50.8944 -10.2314 -1.34779 0 0
482 10 52.6311 -8.34567 0.320208 0 0
483 10 53.82 -6.64014 1.36114 0 0
484 10 53.2908 -8.06572 3.94271 0 0
485 10 55.371 -9.01926 4.48691 0 0
486 10 55.5473 -6.52249 6.14815 0 0
487 10 55.9522 -6.54023 8.64391 0 0
488 10 58.3212 -8.63766 8.58024 0 0
489 10 60.4314 -9.89634 8.54387 0 0
490 10 59.3704 -11.8437 6.25886 0 0
491 11 28.2846 3.02274 -24.462 0 0
492 11 30.3697 3.67114 -23.2112 0 0
493 11 31.6022 5.22087 -25.672 0 0
494 11 32.2868 6.77811 -27.2795 0 0
495 11 31.736 4.69393 -29.3679 0 0
496 11 29.8701 2.96826 -29.2216 0 0
497 11 28.1514 5.67373 -29.1474 0 0
498 11 27.8709 6.84268 -31.1958 0 0
499 11 27.6653 9.2592 -29.1706 0 0
500 11 27.5779 8.29696 -26.9696 0 0
501 11 29.2227 10.7921 -26.0205 0 0
502 11 31.4219 10.0806 -25.0209 0 0
503 11 32.3513 12.9044 -25.1491 0 0
504 11 32.9644 15.1867 -25.2681 0 0
505 11 33.2584 14.7222 -28.3213 0 0
506 11 34.8616 16.0252 -29.6181 0 0
507 11 37.3141 15.3824 -27.966 0 0
508 11 39.4012 14.6473 -26.8714 0 0
509 11 38.8254 15.1824 -23.9933 43 43
510 11 40.2543 16.8609 -22.9364 44 44
511 11 39.4105 18.8 -25.317 44 44
512 11 39.8049 20.4674 -27.1705 40 40
513 11 40.9854 18.1556 -28.7799 40 40
514 11 41.7794 16.7174 -30.5722 37 37
515 11 39.0515 16.9938 -31.9049 34 34
516 11 38.581 15.5472 -33.8054 26 26
517 11 39.1838 13.1076 -32.1584 28 28
518 11 39.2299 10.713 -31.5794 36 36
519 11 39.3472 10.2882 -34.6854 29 29
520 11 39.7987 10.8311 -36.9698 25 25
521 11 37.3096 12.6645 -37.3476 18 18
522 11 35.3609 13.9143 -38.0527 0 0
523 11 34.6771 12.0313 -40.5142 0 0
524 11 33.9763 11.0554 -42.6141 0 0
525 11 33.6035 13.4319 -44.5616 0 0
526 11 33.5233 15.406 -45.9526 0 0
527 11 35.1368 16.764 -43.5706 0 0
528 11 36.7397 17.491 -42.0133 0 0
529 11 38.3221 14.949 -42.0156 0 0
530 11 39.2369 12.657 -42.3442 0 0
531 11 40.8905 13.7357 -44.5704 0 0
532 11 42.1165 14.3689 -46.4297 0 0
533 11 42.619 11.4667 -47.3234 0 0
534 11 43.1203 9.05019 -47.7666 0 0
535 11 41.0197 8.17679 -45.7255 0 0
536 11 41.8721 6.00971 -44.8309 0 0
537 11 39.2481 4.55246 -44.1639 0 0
538 11 38.1181 6.31712 -43.0821 0 0
539 11 40.0991 6.60895 -40.9408 0 0
540 12 -31.3924 -29.4638 11.0149 0 0
541 12 -31.4118 -31.3323 9.39628 0 0
542 12 -28.9887 -32.5787 10.9407 0 0
543 12 -27.9762 -31.3291 12.7473 0 0
544 12 -26.5243 -29.5518 10.5162 0 0
545 12 -26.2068 -28.3855 8.41936 0 0
546 12 -25.9483 -31.1021 6.71002 0 0
547 12 -27.6603 -32.5742 6.88081 0 0
548 12 -27.3801 -33.2554 3.87807 0 0
549 12 -29.2392 -34.7 3.35961 0 0
550 12 -31.3522 -32.6228 4.20831 0 0
551 12 -33.5435 -31.8708 4.85762 0 0
552 12 -33.0207 -29.2458 3.57703 0 0
553 12 -31.3796 -29.7419 1.95278 0 0
554 12 -28.9016 -28.8414 3.81541 0 0
555 12 -27.3808 -28.4989 2.04482 0 0
556 12 -28.1842 -30.813 0.194074 0 0
557 12 -26.514 -30.7654 -1.50885 0 0
558 12 -25.1902 -28.1309 -0.683792 22 22
559 12 -24.3511 -26.6402 -2.38904 24 24
560 12 -22.0987 -28.6939 -2.88608 26 26
561 12 -20.6767 -30.7012 -3.42587 30 30
562 12 -19.2878 -29.1225 -5.90344 24 24
563 12 -19.3682 -27.572 -7.78459 25 25
564 12 -18.3741 -30.0542 -9.64223 27 27
565 12 -20.0759 -31.7039 -10.5935 28 28
566 12 -22.5345 -30.885 -8.97758 29 29
567 12 -24.2621 -30.0247 -7.54253 30 30
568 12 -26.3818 -32.05 -8.67683 38 38
569 12 -28.1373 -33.7712 -9.00037 43 43
570 12 -30.7728 -32.8317 -7.84002 41 41
571 12 -32.5578 -31.6004 -6.98718 0 0
572 12 -30.8572 -30.2664 -4.70257 0 0
573 12 -32.6721 -28.9307 -3.59664 0 0
574 12 -34.3165 -28.8191 -6.25673 0 0
575 12 -35.1068 -26.4482 -6.44099 0 0
576 12 -32.273 -25.5416 -6.12707 0 0
577 12 -31.3051 -25.8154 -8.33099 0 0
578 12 -33.1507 -23.4419 -9.20873 0 0
579 12 -32.2016 -21.5003 -8.10139 0 0
580 12 -29.4046 -22.5019 -8.66601 0 0
581 12 -27.2195 -22.6605 -9.6704 0 0
582 12 -27.2585 -25.6916 -10.3053 0 0
583 12 -28.7661 -26.1166 -12.058 0 0
584 12 -27.3039 -28.8233 -12.6861 0 0
585 12 -26.4385 -30.8401 -13.5334 0 0
586 12 -28.4947 -30.5403 -16 0 0
587 12 -29.0792 -28.3333 -16.8569 0 0
588 12 -26.289 -28.2568 -17.8704 0 0
589 13 -9.34442 46.0148 26.6784 0 0
590 13 -10.298 46.4986 28.8855 0 0
591 13 -8.89156 44.2395 30.455 0 0
592 13 -7.128 45.0771 32.0098 0 0
593 13 -8.23475 48.0217 31.9412 0 0
594 13 -9.0898 50.2507 32.1847 0 0
595 13 -8.26211 50.4719 35.1622 0 0
596 13 -5.92614 50.7854 35.5551 0 0
597 13 -4.88589 52.6522 33.3973 0 0
598 13 -5.47265 54.9381 33.9132 0 0
599 13 -7.43103 54.7289 31.6733 0 0
600 13 -9.6189 55.1786 32.5898 0 0
601 13 -10.6932 56.1531 29.9298 0 0
602 13 -9.46216 57.8574 28.6047 0 0
603 13 -8.71094 59.6132 30.9631 0 0
604 13 -8.58308 61.2759 32.592 0 0
605 13 -11.1241 60.3682 33.9074 0 0
606 13 -12.7716 62.0165 34.5186 0 0
607 13 -14.2198 60.2271 36.7992 14 14
608 13 -13.7516 61.2819 38.8809 13 13
609 13 -11.0746 62.6045 37.9735 17 17
610 13 -9.07894 63.8753 37.5308 18 18
611 13 -9.94799 65.8047 39.5091 16 16
612 13 -12.2784 65.3749 40.0601 16 16
613 13 -11.6683 66.7233 42.6328 14 14
614 13 -10.6277 65.0101 43.9585 13 13
615 13 -7.86093 66.3171 43.6615 11 11
616 13 -6.39046 68.1878 44.1407 10 10
617 13 -4.47977 67.4968 41.8133 10 10
618 13 -5.69312 67.3354 39.7496 13 13
619 13 -4.17692 64.8723 38.7942 16 16
620 13 -2.68291 63.1517 38.0247 0 0
621 13 -4.79453 63.0574 35.7531 0 0
622 13 -4.06889 61.5344 33.9953 0 0
623 13 -1.30249 62.4683 33.1501 0 0
624 13 0.791215 63.3439 32.5552 0 0
625 13 1.83584 63.0767 35.3112 0 0
626 13 3.56579 62.3853 36.8705 0 0
627 13 1.7578 63.9055 38.801 0 0
628 13 0.542544 64.2135 40.7832 0 0
629 13 -0.109499 67.1689 40.0042 0 0
630 13 -0.127569 69.2722 38.7637 0 0
631 13 -1.34171 67.8059 36.3223 0 0
632 13 -2.14678 66.5247 34.4851 0 0
633 13 -5.03098 67.8178 34.2848 0 0
634 13 -5.10512 68.3463 32.0252 0 0
635 13 -6.94593 70.6965 32.7078 0 0
636 13 -5.77766 72.5216 34.0764 0 0
637 13 -8.25505 73.7316 35.4777 0 0
638 14 56.4629 -35.5453 19.903 0 0
639 14 55.7242 -36.8094 21.6452 0 0
640 14 57.799 -38.9868 20.8135 0 0
641 14 59.5715 -40.6062 21.0836 0 0
642 14 57.6428 -42.5315 19.7839 0 0
643 14 55.5544 -42.4789 20.9536 0 0
644 14 54.0015 -43.6847 18.6445 0 0
645 14 52.3952 -44.443 17.1695 0 0
646 14 53.4553 -43.3668 14.6024 0 0
647 14 51.7075 -43.9318 12.9565 0 0
648 14 53.3718 -42.0839 11.1239 0 0
649 14 55.2573 -40.6797 10.3332 0 0
650 14 57.3682 -42.261 11.9172 0 0
651 14 57.1979 -41.7023 14.2853 0 0
652 14 59.3546 -39.5451 14.0584 0 0
653 14 59.1721 -38.4533 16.2074 0 0
654 14 56.0596 -38.6234 16.1158 0 0
655 14 53.7308 -38.1127 16.3194 0 0
656 14 53.9619 -35.4334 14.6921 33 33
657 14 54.018 -33.3279 13.2601 33 33
658 14 54.5602 -34.8985 10.4969 30 30
659 14 55.0827 -37.0405 11.1829 27 27
660 14 57.9449 -36.3321 11.4038 27 27
661 14 60.0615 -35.3377 11.1934 28 28
662 14 59.1733 -34.0782 8.67522 27 27
663 14 57.6877 -33.6535 6.6179 32 32
664 14 60.0396 -34.556 4.75322 28 28
665 14 60.8397 -32.5865 3.42568 22 22
666 14 63.2544 -32.0466 5.34332 21 21
667 14 62.4685 -30.0817 6.53603 29 29
668 14 64.0919 -30.3734 9.12531 30 30
669 14 65.5659 -30.9743 10.9473 0 0
670 14 67.8853 -29.9503 9.29004 0 0
671 14 67.5165 -29.6449 6.92502 0 0
672 14 70.0333 -27.812 6.87278 0 0
673 14 72.0066 -26.5834 6.1502 0 0
674 14 70.4279 -24.7054 4.30987 0 0
675 14 68.6994 -23.7426 5.87504 0 0
676 14 70.5004 -23.761 8.39115 0 0
677 14 70.5857 -21.3401 8.73335 0 0
678 14 73.7003 -21.5518 9.04341 0 0
679 14 74.9376 -22.3382 7.08216 0 0
680 14 77.1339 -20.3175 6.81663 0 0
681 14 78.4684 -18.3761 6.62861 0 0
682 14 78.6426 -18.1078 9.69154 0 0
683 14 77.2141 -16.2247 10.1021 0 0
684 14 75.6627 -17.7733 12.3223 0 0
685 14 73.3056 -18.2806 11.8617 0 0
686 14 72.0649 -16.5003 13.9913 0 0
687 15 -16.2617 9.9437 -28.5002 0 0
688 15 -17.2432 10.9079 -30.5484 0 0
689 15 -16.6113 13.7212 -29.6818 0 0
690 15 -15.8762 15.9399 -28.8163 0 0
691 15 -13.1143 15.9506 -30.232 0 0
692 15 -12.7447 13.9361 -31.4513 0 0
693 15 -14.6009 15.214 -33.4703 0 0
694 15 -16.5077 16.5907 -34.0475 0 0
695 15 -16.9852 15.8907 -37.0149 0 0
696 15 -17.9089 15.2259 -39.1752 0 0
697 15 -17.129 17.9399 -40.0328 0 0
698 15 -16.5271 20.1648 -40.9669 0 0
699 15 -19.4456 21.1821 -40.3579 0 0
700 15 -19.5391 23.5487 -40.3764 0 0
701 15 -22.5419 23.5882 -39.6039 0 0
702 15 -24.8322 23.9437 -38.8517 0 0
703 15 -25.0644 26.3132 -40.782 0 0
704 15 -26.4907 25.7393 -42.6473 0 0
705 15 -24.3486 23.8675 -44.0288 31 31
706 15 -22.5473 22.5264 -44.8024 29 29
707 15 -23.2193 23.4983 -47.6642 28 28
708 15 -23.9908 23.4862 -49.922 27 27
709 15 -25.4108 25.8896 -49.0301 26 26
710 15 -23.9201 27.5834 -48.1148 26 26
711 15 -26.4592 29.0411 -47.1018 27 27
712 15 -28.5315 29.9866 -46.0349 20 20
713 15 -27.1646 30.8145 -43.4936 25 25
714 15 -25.6064 31.4576 -41.7208 24 24
715 15 -28.3478 31.1668 -40.1734 30 30
716 15 -30.5727 30.678 -39.3095 28 28
717 15 -29.5721 27.9161 -38.6855 28 28
718 15 -29.3151 27.9814 -36.1521 0 0
719 15 -28.7502 24.9908 -36.0084 0 0
720 15 -27.1 24.5238 -34.2772 0 0
721 15 -25.5818 26.8109 -35.687 0 0
722 15 -24.3254 28.2849 -37.0087 0 0
723 15 -21.4329 26.9142 -36.4717 0 0
724 15 -21.4488 25.8092 -34.3222 0 0
725 15 -18.7971 27.2378 -34.1968 0 0
726 15 -16.8665 28.4371 -33.4013 0 0
727 15 -17.9785 31.276 -32.8915 0 0
728 15 -19.7952 31.8591 -34.3395 0 0
729 15 -17.9642 34.3579 -35.1731 0 0
730 15 -16.5535 35.0739 -33.247 0 0
731 15 -14.2693 36.335 -35.0148 0 0
732 15 -12.642 36.6999 -36.6323 0 0
733 15 -14.1207 39.3789 -36.8502 0 0
734 15 -15.7266 39.2445 -38.6846 0 0
735 15 -18.007 38.5383 -36.5227 0 0
736 16 67.384 -3.57794 29.9648 0 0
737 16 67.5263 -2.12414 31.7612 0 0
738 16 65.2448 -0.489509 30.6294 0 0
739 16 66.1598 1.26173 29.1381 0 0
740 16 67.2682 -0.427632 26.749 0 0
741 16 67.9398 -2.01842 25.024 0 0
742 16 65.9257 -1.62805 22.8796 0 0
743 16 67.0109 -1.01899 20.8191 0 0
744 16 65.9914 2.07297 21.4223 0 0
745 16 64.329 2.65077 23.1176 0 0
746 16 62.0776 1.11667 21.5676 0 0
747 16 62.5234 1.08432 19.1869 0 0
748 16 61.4736 4.11065 19.1255 0 0
749 16 60.3083 6.08079 20.0539 0 0
750 16 57.8545 4.156 19.3246 0 0
751 16 56.2338 5.36157 17.9483 0 0
752 16 55.1043 7.40444 20.0987 0 0
753 16 54.4747 9.23124 21.5561 0 0
754 16 51.7155 8.39758 22.2778 30 30
755 16 50.5606 7.39539 20.3586 27 27
756 16 49.8585 4.85329 21.7724 26 26
757 16 49.9291 3.22134 19.9789 26 26
758 16 51.8693 4.53986 17.883 29 29
759 16 53.4478 2.75102 17.1283 28 28
760 16 53.4212 3.87439 14.2725 26 26
761 16 54.1925 5.10074 12.4149 30 30
762 16 51.4365 5.92885 11.2032 24 24
763 16 49.8233 4.18444 11.8946 22 22
764 16 48.7723 5.75906 14.4768 21 21
765 16 47.9626 7.44317 15.9527 25 25
766 16 47.4427 9.21194 13.4048 31 31
767 16 47.5956 11.524 14.2773 0 0
768 16 46.8444 12.8924 11.5983 0 0
769 16 45.9776 13.4866 9.45569 0 0
770 16 43.9606 15.2266 10.9268 0 0
771 16 45.05 16.3429 12.7568 0 0
772 16 44.3652 14.1618 14.9496 0 0
773 16 44.2875 12.6807 16.8262 0 0
774 16 43.4879 10.5938 14.813 0 0
775 16 42.9121 8.51109 15.8255 0 0
776 16 42.983 7.12655 13.1618 0 0
777 16 44.05 5.0295 13.1109 0 0
778 16 41.3153 3.64753 13.3889 0 0
779 16 39.0229 3.38959 13.9522 0 0
780 16 40.078 3.48451 16.7992 0 0
781 16 41.133 3.84257 18.9105 0 0
782 16 43.8359 4.40816 17.7026 0 0
783 16 45.401 4.64398 19.4957 0 0
784 16 43.3409 3.20495 21.3498 0 0
785 17 -61.9892 4.14913 19.0476 0 0
786 17 -64.2896 4.02519 20.0842 0 0
787 17 -65.848 4.70068 17.5928 0 0
788 17 -67.5767 3.00543 17.4883 0 0
789 17 -67.2101 3.40361 14.4082 0 0
790 17 -66.3244 3.96971 12.289 0 0
791 17 -68.4538 6.04811 11.9234 0 0
792 17 -69.9374 7.9003 11.4849 0 0
793 17 -71.9993 5.75089 12.3514 0 0
794 17 -73.6578 3.9124 12.923 0 0
795 17 -72.0455 2.55292 15.1079 0 0
796 17 -70.2776 1.19457 13.9109 0 0
797 17 -70.2664 -0.404021 16.5651 0 0
798 17 -68.0058 -1.28493 17.1151 0 0
799 17 -69.3175 -3.83527 18.1954 0 0
800 17 -70.6315 -5.64042 18.9874 0 0
801 17 -71.2962 -6.37079 16.1619 0 0
802 17 -70.6187 -8.46929 15.1602 0 0
803 17 -68.2829 -7.02053 13.6736 32 32
804 17 -66.7706 -5.49047 12.6188 32 32
805 17 -65.213 -7.72828 10.8457 37 37
806 17 -66.5431 -9.81374 10.1397 41 41
807 17 -68.6265 -8.82253 8.16066 40 40
808 17 -70.5282 -8.76818 6.58701 40 40
809 17 -70.4121 -11.7272 5.76066 36 36
810 17 -70.6613 -13.5288 7.32576 33 33
811 17 -73.4378 -14.0841 5.90359 23 23
812 17 -75.7051 -14.599 5.13457 21 21
813 17 -74.981 -15.1118 2.24905 22 22
814 17 -74.224 -15.4681 -0.14084 22 22
815 17 -74.6051 -12.5545 -0.996402 26 26
816 17 -75.8751 -11.4891 0.790121 0 0
817 17 -73.6246 -11.1099 2.75903 0 0
818 17 -74.2361 -9.10037 4.22263 0 0
819 17 -77.0831 -10.0293 5.11254 0 0
820 17 -77.7048 -8.8573 7.2008 0 0
821 17 -75.0175 -10.186 8.03342 0 0
822 17 -75.5271 -11.3051 10.1569 0 0
823 17 -72.5789 -11.974 10.7451 0 0
824 17 -72.0497 -11.0489 12.9325 0 0
825 17 -72.6361 -8.21439 11.7718 0 0
826 17 -73.139 -6.21042 10.6616 0 0
827 17 -75.9668 -7.18133 11.6156 0 0